/*--------------------------------*- C++ -*----------------------------------*\
| =========                 |                                                 |
| \\      /  F ield         | OpenFOAM: The Open Source CFD Toolbox           |
|  \\    /   O peration     | Version:  2206                                  |
|   \\  /    A nd           | Website:  www.openfoam.com                      |
|    \\/     M anipulation  |                                                 |
\*---------------------------------------------------------------------------*/
FoamFile
{
    version     2.0;
    format      ascii;
    arch        "LSB;label=32;scalar=64";
    class       volVectorField;
    location    "19.8999";
    object      ddt0(U);
}
// * * * * * * * * * * * * * * * * * * * * * * * * * * * * * * * * * * * * * //

dimensions      [0 1 -2 0 0 0 0];

internalField   nonuniform List<vector> 
4852
(
(-5.99997e-06 0.00315167 0)
(-4.57365e-05 0.0086461 0)
(-0.000141647 0.0132991 0)
(-0.000281422 0.0171195 0)
(-0.00045639 0.0200585 0)
(-0.000664673 0.0221135 0)
(-0.00089458 0.0232838 0)
(-0.00112897 0.023564 0)
(-0.00136041 0.0229459 0)
(-0.00158475 0.0214297 0)
(-0.00179777 0.0190255 0)
(-0.00199539 0.0157529 0)
(-0.00217171 0.0116407 0)
(-0.00231936 0.00672437 0)
(-0.00243021 0.00104158 0)
(-0.00249687 -0.00536829 0)
(-0.0025134 -0.0124663 0)
(-0.00247482 -0.0202138 0)
(-0.00237623 -0.0285728 0)
(-0.00221278 -0.0375054 0)
(-0.00198004 -0.0469733 0)
(-0.00167388 -0.0569386 0)
(-0.00128984 -0.0673637 0)
(-0.000823716 -0.0782105 0)
(-0.000271999 -0.0894401 0)
(0.000368394 -0.101013 0)
(0.00110026 -0.112892 0)
(0.00192853 -0.125038 0)
(0.00285072 -0.137412 0)
(0.00388059 -0.14998 0)
(0.00501188 -0.162696 0)
(0.00619729 -0.175517 0)
(0.0075654 -0.188453 0)
(0.00902875 -0.201418 0)
(0.0105489 -0.214391 0)
(0.0122611 -0.227324 0)
(0.0139708 -0.24018 0)
(0.0159144 -0.252943 0)
(0.0178104 -0.265547 0)
(0.0199756 -0.27802 0)
(0.0220777 -0.290261 0)
(0.024435 -0.302336 0)
(0.0267686 -0.314131 0)
(0.0292775 -0.325719 0)
(0.0318859 -0.337025 0)
(0.0344993 -0.348041 0)
(0.0374022 -0.358849 0)
(0.0401221 -0.369241 0)
(0.0432616 -0.37954 0)
(0.0462075 -0.38936 0)
(0.0494021 -0.399047 0)
(0.0526953 -0.408506 0)
(0.0559389 -0.417598 0)
(0.0593718 -0.426653 0)
(0.0628371 -0.435533 0)
(0.0663744 -0.444311 0)
(0.069998 -0.453022 0)
(0.0737019 -0.4617 0)
(0.0774812 -0.470392 0)
(0.081342 -0.479156 0)
(0.0852948 -0.488054 0)
(0.0893465 -0.49715 0)
(0.0935006 -0.506512 0)
(0.0977568 -0.516204 0)
(0.102111 -0.526288 0)
(0.106562 -0.536821 0)
(0.111117 -0.54787 0)
(0.115787 -0.559504 0)
(0.120585 -0.571796 0)
(0.125526 -0.584826 0)
(0.130623 -0.598682 0)
(0.135891 -0.613453 0)
(0.141335 -0.629226 0)
(0.146965 -0.646091 0)
(0.152794 -0.664141 0)
(0.158838 -0.683468 0)
(0.165109 -0.704163 0)
(0.171624 -0.726321 0)
(0.178405 -0.750047 0)
(0.185475 -0.775443 0)
(0.192849 -0.802615 0)
(0.200548 -0.831672 0)
(0.208596 -0.862733 0)
(0.217012 -0.895911 0)
(0.225813 -0.931325 0)
(0.23501 -0.969091 0)
(0.244622 -1.00934 0)
(0.254666 -1.0522 0)
(0.265125 -1.09776 0)
(0.276016 -1.1462 0)
(0.2873 -1.19761 0)
(0.298946 -1.25211 0)
(0.310893 -1.30983 0)
(0.323047 -1.37091 0)
(0.335278 -1.43545 0)
(0.34739 -1.50357 0)
(0.359098 -1.57536 0)
(0.370018 -1.6509 0)
(0.37964 -1.73026 0)
(0.38726 -1.81345 0)
(0.391897 -1.90044 0)
(0.392215 -1.99102 0)
(0.386363 -2.08488 0)
(0.371832 -2.18129 0)
(0.344925 -2.27898 0)
(0.301153 -2.37529 0)
(0.232714 -2.466 0)
(0.133255 -2.53438 0)
(-0.025426 -2.57194 0)
(-0.127831 -2.53547 0)
(-0.563494 -2.28022 0)
(-0.040537 -0.914053 0)
(-7.29646e-06 0.00317524 0)
(-4.62566e-05 0.00872764 0)
(-0.000112447 0.0134106 0)
(-0.000211698 0.0172702 0)
(-0.000349055 0.0202536 0)
(-0.000515162 0.0223379 0)
(-0.000694942 0.0235213 0)
(-0.000880496 0.0237975 0)
(-0.00106872 0.023167 0)
(-0.00125265 0.0216379 0)
(-0.00142668 0.0192221 0)
(-0.00158536 0.0159358 0)
(-0.00172311 0.0118036 0)
(-0.00183478 0.00685758 0)
(-0.00191424 0.00113637 0)
(-0.0019563 -0.00532042 0)
(-0.00195866 -0.0124716 0)
(-0.00191955 -0.0202784 0)
(-0.00183604 -0.0287013 0)
(-0.00170368 -0.0377022 0)
(-0.00151926 -0.0472422 0)
(-0.00127984 -0.0572839 0)
(-0.00098092 -0.0677887 0)
(-0.000617478 -0.0787185 0)
(-0.00018699 -0.0900338 0)
(0.000312136 -0.101697 0)
(0.000882482 -0.113669 0)
(0.00152828 -0.12591 0)
(0.00224832 -0.138383 0)
(0.00305197 -0.151048 0)
(0.00391688 -0.163864 0)
(0.00485231 -0.176783 0)
(0.00595025 -0.189851 0)
(0.00705615 -0.202918 0)
(0.00827562 -0.216013 0)
(0.00958238 -0.229026 0)
(0.0109151 -0.241998 0)
(0.0124478 -0.254848 0)
(0.0138815 -0.267567 0)
(0.0156463 -0.280136 0)
(0.0171794 -0.292477 0)
(0.0191433 -0.304665 0)
(0.0208161 -0.316542 0)
(0.0229111 -0.32826 0)
(0.0248043 -0.339625 0)
(0.0269504 -0.350787 0)
(0.0291053 -0.361632 0)
(0.0313102 -0.3722 0)
(0.0336943 -0.382511 0)
(0.0359849 -0.392468 0)
(0.038603 -0.402325 0)
(0.0409852 -0.411653 0)
(0.0437 -0.421033 0)
(0.0463556 -0.430067 0)
(0.0490688 -0.439043 0)
(0.051798 -0.447871 0)
(0.0546 -0.456626 0)
(0.0574992 -0.465374 0)
(0.0604907 -0.474171 0)
(0.0635578 -0.483069 0)
(0.0666798 -0.49211 0)
(0.0698466 -0.501339 0)
(0.0730685 -0.510801 0)
(0.0763686 -0.520558 0)
(0.0797634 -0.530684 0)
(0.0832607 -0.541268 0)
(0.0868643 -0.552394 0)
(0.0905752 -0.564148 0)
(0.0943871 -0.5766 0)
(0.0982967 -0.589827 0)
(0.102313 -0.603894 0)
(0.106452 -0.618877 0)
(0.110723 -0.634855 0)
(0.115138 -0.65192 0)
(0.119717 -0.670164 0)
(0.124481 -0.689688 0)
(0.129438 -0.710591 0)
(0.134596 -0.732982 0)
(0.139972 -0.756965 0)
(0.145585 -0.782646 0)
(0.151441 -0.810129 0)
(0.157547 -0.839531 0)
(0.163921 -0.870956 0)
(0.170585 -0.904518 0)
(0.177546 -0.940329 0)
(0.184808 -0.978512 0)
(0.192387 -1.01918 0)
(0.200298 -1.06245 0)
(0.208535 -1.10845 0)
(0.217066 -1.15725 0)
(0.225916 -1.20903 0)
(0.235029 -1.26386 0)
(0.244313 -1.3218 0)
(0.253671 -1.38295 0)
(0.262994 -1.44736 0)
(0.27211 -1.51509 0)
(0.280746 -1.58612 0)
(0.288538 -1.66042 0)
(0.295032 -1.73788 0)
(0.299612 -1.81827 0)
(0.301441 -1.90122 0)
(0.299391 -1.9861 0)
(0.291959 -2.07194 0)
(0.277256 -2.15734 0)
(0.252694 -2.23992 0)
(0.216159 -2.31671 0)
(0.161302 -2.3778 0)
(0.0904204 -2.42009 0)
(0.00441301 -2.43485 0)
(-0.111314 -2.38287 0)
(-0.250616 -2.28858 0)
(-0.315515 -2.00152 0)
(-4.26845e-06 0.00317581 0)
(-6.3644e-05 0.0087637 0)
(-9.89697e-05 0.0135046 0)
(-0.000130855 0.0173973 0)
(-0.000218392 0.0203959 0)
(-0.000339436 0.0224965 0)
(-0.000471146 0.0236956 0)
(-0.000611455 0.0239844 0)
(-0.000756318 0.0233607 0)
(-0.00089919 0.0218279 0)
(-0.00103268 0.0193959 0)
(-0.00115077 0.0160838 0)
(-0.00124985 0.0119186 0)
(-0.00132766 0.00693591 0)
(-0.00138246 0.00117626 0)
(-0.00141266 -0.0053186 0)
(-0.00141546 -0.0125083 0)
(-0.00138785 -0.0203535 0)
(-0.00132568 -0.0288165 0)
(-0.00122639 -0.0378602 0)
(-0.00108761 -0.0474488 0)
(-0.000907446 -0.0575442 0)
(-0.000683631 -0.0681079 0)
(-0.000415351 -0.0791001 0)
(-0.000101419 -0.0904825 0)
(0.000259585 -0.102215 0)
(0.00067105 -0.114258 0)
(0.00113379 -0.126571 0)
(0.00165064 -0.139118 0)
(0.00222646 -0.151857 0)
(0.00284695 -0.164762 0)
(0.00354778 -0.177766 0)
(0.00436976 -0.190918 0)
(0.00502757 -0.204006 0)
(0.00601783 -0.217237 0)
(0.00681278 -0.230266 0)
(0.00787819 -0.243409 0)
(0.0089279 -0.256256 0)
(0.0099235 -0.269141 0)
(0.0113104 -0.281705 0)
(0.0121728 -0.294182 0)
(0.0139312 -0.30641 0)
(0.0146483 -0.31835 0)
(0.01673 -0.330199 0)
(0.0174157 -0.341518 0)
(0.0196058 -0.352919 0)
(0.0205703 -0.363658 0)
(0.0225248 -0.374446 0)
(0.0240186 -0.384744 0)
(0.0257414 -0.394856 0)
(0.0275326 -0.404665 0)
(0.0293554 -0.414244 0)
(0.0313087 -0.423628 0)
(0.0331271 -0.432568 0)
(0.0351584 -0.441639 0)
(0.037156 -0.450572 0)
(0.0391893 -0.459465 0)
(0.0412618 -0.468332 0)
(0.043364 -0.477177 0)
(0.0455117 -0.486046 0)
(0.0477383 -0.495038 0)
(0.0500574 -0.504264 0)
(0.0524577 -0.513806 0)
(0.0549121 -0.523718 0)
(0.0574018 -0.534042 0)
(0.0599229 -0.544819 0)
(0.0624888 -0.5561 0)
(0.0651166 -0.567951 0)
(0.067828 -0.580458 0)
(0.0706445 -0.593713 0)
(0.0735835 -0.607815 0)
(0.0766458 -0.622859 0)
(0.0798242 -0.638947 0)
(0.0831135 -0.656167 0)
(0.0865148 -0.674606 0)
(0.0900258 -0.694353 0)
(0.0936497 -0.715501 0)
(0.0974004 -0.738141 0)
(0.1013 -0.762372 0)
(0.105363 -0.788297 0)
(0.109599 -0.81603 0)
(0.114026 -0.845679 0)
(0.118666 -0.877358 0)
(0.123525 -0.911181 0)
(0.12861 -0.947274 0)
(0.133927 -0.985747 0)
(0.139492 -1.02672 0)
(0.1453 -1.07029 0)
(0.151335 -1.11659 0)
(0.157599 -1.16572 0)
(0.164075 -1.21774 0)
(0.170726 -1.2727 0)
(0.177498 -1.33074 0)
(0.184318 -1.39193 0)
(0.19106 -1.45622 0)
(0.197563 -1.52356 0)
(0.203607 -1.59391 0)
(0.208916 -1.66708 0)
(0.213131 -1.74282 0)
(0.215763 -1.82075 0)
(0.216244 -1.90034 0)
(0.21379 -1.98053 0)
(0.207275 -2.06004 0)
(0.195309 -2.13705 0)
(0.176875 -2.20955 0)
(0.149302 -2.27149 0)
(0.114049 -2.32191 0)
(0.0701313 -2.35362 0)
(0.0216267 -2.35695 0)
(-0.0356223 -2.31979 0)
(-0.0295447 -2.22008 0)
(-0.0334727 -2.25666 0)
(9.0293e-06 0.00332078 0)
(1.84306e-05 0.00880496 0)
(-7.15029e-06 0.0134361 0)
(-5.43657e-05 0.0174062 0)
(-0.000117861 0.0204796 0)
(-0.00019305 0.0226171 0)
(-0.000276542 0.0238276 0)
(-0.000363773 0.0241164 0)
(-0.000451007 0.0234872 0)
(-0.000535268 0.0219458 0)
(-0.000613405 0.0195028 0)
(-0.000682484 0.0161782 0)
(-0.000740856 0.012 0)
(-0.000787963 0.00700456 0)
(-0.000823666 0.0012296 0)
(-0.000845865 -0.00528493 0)
(-0.000851685 -0.0125015 0)
(-0.000838307 -0.0203803 0)
(-0.000803483 -0.0288832 0)
(-0.000744361 -0.0379698 0)
(-0.000659287 -0.0476014 0)
(-0.000547603 -0.0577374 0)
(-0.000409041 -0.0683402 0)
(-0.000242032 -0.0793707 0)
(-4.58799e-05 -0.090792 0)
(0.00017952 -0.102564 0)
(0.000433971 -0.114649 0)
(0.000719552 -0.127008 0)
(0.00103424 -0.139604 0)
(0.00139067 -0.152391 0)
(0.0017455 -0.165354 0)
(0.00219891 -0.178422 0)
(0.00259415 -0.191612 0)
(0.00318309 -0.204757 0)
(0.00356991 -0.218006 0)
(0.00427565 -0.231141 0)
(0.00474953 -0.244288 0)
(0.00541403 -0.257227 0)
(0.00613026 -0.270143 0)
(0.00664443 -0.28274 0)
(0.00764724 -0.295343 0)
(0.00807813 -0.307481 0)
(0.00915287 -0.319672 0)
(0.00984274 -0.331319 0)
(0.0105551 -0.342935 0)
(0.0119313 -0.354194 0)
(0.0119787 -0.365018 0)
(0.0140246 -0.37601 0)
(0.0138835 -0.386042 0)
(0.0157261 -0.396551 0)
(0.0163723 -0.406241 0)
(0.0175399 -0.41591 0)
(0.0187141 -0.425242 0)
(0.0200565 -0.434621 0)
(0.0212023 -0.44341 0)
(0.022342 -0.452319 0)
(0.0235107 -0.461114 0)
(0.0247903 -0.469963 0)
(0.0261675 -0.478953 0)
(0.0275825 -0.488081 0)
(0.0289732 -0.49733 0)
(0.0303279 -0.506707 0)
(0.0316842 -0.516266 0)
(0.033094 -0.526083 0)
(0.0345909 -0.536266 0)
(0.0361866 -0.546924 0)
(0.0378745 -0.558172 0)
(0.0396388 -0.570101 0)
(0.0414583 -0.582785 0)
(0.0433183 -0.596275 0)
(0.0452147 -0.610622 0)
(0.0471527 -0.625879 0)
(0.0491358 -0.642119 0)
(0.0511662 -0.659427 0)
(0.053247 -0.67791 0)
(0.0553872 -0.69768 0)
(0.0575939 -0.718857 0)
(0.0598762 -0.74155 0)
(0.0622468 -0.765872 0)
(0.0647252 -0.791931 0)
(0.0673267 -0.819836 0)
(0.0700639 -0.849684 0)
(0.0729478 -0.881588 0)
(0.0759918 -0.915652 0)
(0.0792011 -0.951993 0)
(0.0825749 -0.990711 0)
(0.0861111 -1.03192 0)
(0.0898068 -1.07572 0)
(0.0936504 -1.12223 0)
(0.0976497 -1.17156 0)
(0.101809 -1.22377 0)
(0.106091 -1.27892 0)
(0.110443 -1.33703 0)
(0.11481 -1.39808 0)
(0.119124 -1.4621 0)
(0.123273 -1.52902 0)
(0.127117 -1.5987 0)
(0.130472 -1.67092 0)
(0.133082 -1.74536 0)
(0.134574 -1.82152 0)
(0.134747 -1.8989 0)
(0.133201 -1.97546 0)
(0.128991 -2.05043 0)
(0.121488 -2.12222 0)
(0.109941 -2.1876 0)
(0.0944605 -2.24482 0)
(0.0746851 -2.2893 0)
(0.0509326 -2.31627 0)
(0.0226027 -2.32081 0)
(-0.00644645 -2.29703 0)
(-0.0268025 -2.2718 0)
(-0.0982633 -1.81819 0)
(-2.83016e-06 0.0175182 0)
(-3.94361e-05 0.0205503 0)
(-6.17714e-05 0.0226752 0)
(-8.73047e-05 0.0238867 0)
(-0.000116614 0.0241793 0)
(-0.000149926 0.0235529 0)
(-0.000185224 0.0220101 0)
(-0.000218543 0.0195619 0)
(-0.000246229 0.0162279 0)
(-0.000266366 0.0120388 0)
(-0.000278108 0.0070303 0)
(-0.000281535 0.00124255 0)
(-0.000277662 -0.00528573 0)
(-0.000268206 -0.0125146 0)
(-0.00025402 -0.0204059 0)
(-0.000235299 -0.02892 0)
(-0.000211833 -0.0380199 0)
(-0.00018319 -0.0476667 0)
(-0.000147406 -0.0578228 0)
(-0.000102605 -0.0684481 0)
(-4.75709e-05 -0.0795048 0)
(1.78923e-05 -0.0909521 0)
(9.47335e-05 -0.102751 0)
(0.000183196 -0.114861 0)
(0.000284011 -0.127244 0)
(0.000392735 -0.139861 0)
(0.000524972 -0.152673 0)
(0.000624918 -0.165657 0)
(0.000853197 -0.178737 0)
(0.000834415 -0.191948 0)
(0.00122994 -0.205166 0)
(0.00121675 -0.218406 0)
(0.00154824 -0.231597 0)
(0.00168035 -0.244724 0)
(0.00187983 -0.257725 0)
(0.00218607 -0.270616 0)
(0.00225613 -0.283293 0)
(0.00272624 -0.295854 0)
(0.0026537 -0.308083 0)
(0.00333368 -0.320248 0)
(0.0030619 -0.331912 0)
(0.00394191 -0.343653 0)
(0.00362785 -0.35469 0)
(0.00431331 -0.365922 0)
(0.00461941 -0.376469 0)
(0.00428646 -0.386893 0)
(0.00583274 -0.397372 0)
(0.00456676 -0.406713 0)
(0.00626515 -0.417084 0)
(0.00600199 -0.426141 0)
(0.00644913 -0.435284 0)
(0.0071544 -0.444322 0)
(0.00779651 -0.453509 0)
(0.00818822 -0.462477 0)
(0.00844914 -0.471353 0)
(0.00872153 -0.480144 0)
(0.00911932 -0.488943 0)
(0.00965501 -0.497907 0)
(0.0102908 -0.507181 0)
(0.0109893 -0.51685 0)
(0.0117222 -0.526962 0)
(0.0124669 -0.537524 0)
(0.013214 -0.548531 0)
(0.0139564 -0.559997 0)
(0.0146811 -0.571982 0)
(0.0153719 -0.58458 0)
(0.0160228 -0.59791 0)
(0.0166387 -0.612087 0)
(0.0172338 -0.627222 0)
(0.0178293 -0.643409 0)
(0.0184547 -0.660743 0)
(0.019136 -0.679307 0)
(0.0198871 -0.699197 0)
(0.0207105 -0.720506 0)
(0.0216097 -0.743337 0)
(0.0225846 -0.767788 0)
(0.0236293 -0.793971 0)
(0.0247383 -0.821993 0)
(0.025915 -0.851963 0)
(0.0271618 -0.883982 0)
(0.0284781 -0.918168 0)
(0.0298613 -0.954626 0)
(0.0313158 -0.993469 0)
(0.0328477 -1.0348 0)
(0.0344445 -1.07872 0)
(0.0360596 -1.12534 0)
(0.0377475 -1.17484 0)
(0.0395928 -1.22713 0)
(0.0415346 -1.28234 0)
(0.0434944 -1.34054 0)
(0.0454784 -1.40168 0)
(0.0474819 -1.46571 0)
(0.0494637 -1.53252 0)
(0.0513208 -1.60188 0)
(0.0529366 -1.67347 0)
(0.0542024 -1.74682 0)
(0.0547901 -1.82144 0)
(0.0557396 -1.89867 0)
(0.0563768 -1.97298 0)
(0.054957 -2.04476 0)
(0.0522542 -2.11303 0)
(0.0485217 -2.17525 0)
(0.0435013 -2.22848 0)
(0.037102 -2.26974 0)
(0.0299424 -2.29564 0)
(0.0215259 -2.30278 0)
(0.01462 -2.28569 0)
(-0.010358 -2.23963 0)
(-0.0421586 -2.18785 0)
(-6.73833e-05 0.000139866 0)
(-0.000295467 0.000127809 0)
(-0.000723624 0.000214247 0)
(-0.00126005 0.000281895 0)
(-0.00183119 0.000323853 0)
(-0.00243617 0.000340352 0)
(-0.00300594 0.000330034 0)
(-0.00350437 0.00026437 0)
(-0.00387113 0.000170781 0)
(-0.00399343 4.24909e-05 0)
(-0.0038029 -0.000130372 0)
(-0.0032501 -0.000351591 0)
(-0.002283 -0.000618629 0)
(-0.000843467 -0.000948963 0)
(0.00114428 -0.00134733 0)
(0.00377065 -0.0018046 0)
(0.00711538 -0.00229518 0)
(0.0112515 -0.00282116 0)
(0.0163464 -0.00353702 0)
(0.02254 -0.0043422 0)
(0.0298154 -0.00516658 0)
(0.0381764 -0.00598853 0)
(0.0477206 -0.00682229 0)
(0.0584426 -0.00758244 0)
(0.0703037 -0.0083205 0)
(0.0833549 -0.00908061 0)
(0.0975344 -0.00982897 0)
(0.113117 -0.0105325 0)
(0.128949 -0.0113446 0)
(0.148338 -0.0120816 0)
(0.16595 -0.0124298 0)
(0.184821 -0.0123997 0)
(0.20436 -0.0120974 0)
(0.223882 -0.0115517 0)
(0.243179 -0.0107795 0)
(0.262174 -0.00981553 0)
(0.280583 -0.00871122 0)
(0.298326 -0.00751729 0)
(0.315079 -0.00630843 0)
(0.330866 -0.0051953 0)
(0.345551 -0.00405528 0)
(0.359281 -0.0028142 0)
(0.371914 -0.00162669 0)
(0.383387 -0.000723649 0)
(0.394124 8.90787e-05 0)
(0.403341 0.000663623 0)
(0.41244 0.000261285 0)
(0.421975 -0.000626501 0)
(0.431197 -0.00184512 0)
(0.440741 -0.00311288 0)
(0.450684 -0.00430175 0)
(0.461498 -0.00546971 0)
(0.473026 -0.00677241 0)
(0.486031 -0.00821751 0)
(0.500282 -0.00978049 0)
(0.516274 -0.0113594 0)
(0.533658 -0.0120093 0)
(0.552225 -0.0132549 0)
(0.572902 -0.0148164 0)
(0.59456 -0.015719 0)
(0.61836 -0.0163481 0)
(0.640584 -0.0167994 0)
(0.668742 -0.0168344 0)
(0.687162 -0.0178624 0)
(0.724604 -0.0112868 0)
(0.743706 -0.0201717 0)
(0.775817 -0.0266523 0)
(0.808315 -0.0234304 0)
(0.836746 -0.0182275 0)
(0.864363 -0.0155133 0)
(0.89096 -0.0138943 0)
(0.919987 -0.013692 0)
(0.945491 -0.0143621 0)
(0.97243 -0.0143737 0)
(1.00012 -0.0139254 0)
(1.02811 -0.0132603 0)
(1.05613 -0.0128777 0)
(1.08422 -0.0127959 0)
(1.1124 -0.0129104 0)
(1.14097 -0.0137844 0)
(1.17009 -0.0145825 0)
(1.19996 -0.0153976 0)
(1.23075 -0.0161174 0)
(1.26253 -0.0166773 0)
(1.29524 -0.0170598 0)
(1.32877 -0.0172906 0)
(1.3629 -0.0173764 0)
(1.39738 -0.0173147 0)
(1.43198 -0.0170637 0)
(1.46648 -0.0166019 0)
(1.50063 -0.0159844 0)
(1.53413 -0.0151767 0)
(1.5667 -0.0142335 0)
(1.5983 -0.0133137 0)
(1.62884 -0.0122112 0)
(1.658 -0.0108738 0)
(1.6855 -0.00958485 0)
(1.71103 -0.00809625 0)
(1.73425 -0.00633072 0)
(1.75514 -0.00463022 0)
(1.7738 -0.00285311 0)
(1.79004 -0.000783822 0)
(1.80319 0.00156831 0)
(1.8128 0.00414659 0)
(1.81752 0.00685265 0)
(1.81962 0.0099096 0)
(1.814 0.0133819 0)
(1.80429 0.0172162 0)
(1.78792 0.021492 0)
(1.76416 0.0256418 0)
(1.73638 0.0301279 0)
(1.69573 0.0346249 0)
(-7.38634e-05 0.000175832 0)
(-0.000181071 0.000627096 0)
(-0.000629337 0.00098167 0)
(-0.00138676 0.000911537 0)
(-0.00194356 0.00100562 0)
(-0.0025535 0.000956387 0)
(-0.00314459 0.00075438 0)
(-0.00367572 0.000748684 0)
(-0.0040961 0.000303978 0)
(-0.00436013 -0.000183899 0)
(-0.00440817 -0.000720519 0)
(-0.00421946 -0.00134436 0)
(-0.00375224 -0.00201653 0)
(-0.00297425 -0.00281256 0)
(-0.00180372 -0.00376691 0)
(-0.000164136 -0.00486681 0)
(0.0019782 -0.00608647 0)
(0.00453426 -0.00741037 0)
(0.00772986 -0.00887092 0)
(0.0118673 -0.0104065 0)
(0.0168626 -0.0122009 0)
(0.0226053 -0.0141356 0)
(0.0292145 -0.0160248 0)
(0.0366874 -0.0178766 0)
(0.0449743 -0.0197506 0)
(0.0541803 -0.0216101 0)
(0.0643193 -0.0234451 0)
(0.0754264 -0.0251728 0)
(0.0874238 -0.0268173 0)
(0.10025 -0.028363 0)
(0.113979 -0.029645 0)
(0.128755 -0.0307112 0)
(0.14445 -0.031542 0)
(0.160892 -0.0320777 0)
(0.177997 -0.032303 0)
(0.195727 -0.0322094 0)
(0.214027 -0.0317923 0)
(0.232837 -0.0310871 0)
(0.252074 -0.0301165 0)
(0.271805 -0.0292088 0)
(0.292091 -0.0283046 0)
(0.312771 -0.0272237 0)
(0.333632 -0.0260668 0)
(0.354933 -0.024837 0)
(0.375787 -0.02366 0)
(0.399342 -0.0225688 0)
(0.420567 -0.021929 0)
(0.443014 -0.0219351 0)
(0.464915 -0.0207696 0)
(0.487375 -0.0208668 0)
(0.509726 -0.0213576 0)
(0.532479 -0.0221499 0)
(0.554945 -0.0234875 0)
(0.577985 -0.0251483 0)
(0.601268 -0.0269752 0)
(0.624773 -0.028829 0)
(0.649273 -0.0305434 0)
(0.672311 -0.0324484 0)
(0.699104 -0.0338361 0)
(0.722666 -0.0359413 0)
(0.752898 -0.036837 0)
(0.776493 -0.0391414 0)
(0.807474 -0.0398555 0)
(0.833572 -0.0420681 0)
(0.862963 -0.0437428 0)
(0.892571 -0.0444559 0)
(0.918084 -0.0466744 0)
(0.951097 -0.0470875 0)
(0.973442 -0.0515081 0)
(1.00226 -0.0516401 0)
(1.03863 -0.0478443 0)
(1.07051 -0.0527108 0)
(1.10526 -0.0427727 0)
(1.13828 -0.0489973 0)
(1.17304 -0.0506095 0)
(1.20844 -0.0512713 0)
(1.24451 -0.051827 0)
(1.28128 -0.0523222 0)
(1.31871 -0.0527296 0)
(1.35674 -0.0531317 0)
(1.39527 -0.0537002 0)
(1.4343 -0.0546158 0)
(1.4739 -0.055901 0)
(1.51412 -0.0574006 0)
(1.55499 -0.0588444 0)
(1.59648 -0.0600385 0)
(1.63849 -0.0608719 0)
(1.68087 -0.0613328 0)
(1.72351 -0.0614027 0)
(1.76623 -0.0610303 0)
(1.80889 -0.0603195 0)
(1.85126 -0.0591611 0)
(1.89302 -0.0576664 0)
(1.93433 -0.0563616 0)
(1.97538 -0.0547743 0)
(2.01564 -0.0523055 0)
(2.05482 -0.0493279 0)
(2.09213 -0.0459471 0)
(2.1298 -0.0424823 0)
(2.16606 -0.039316 0)
(2.20072 -0.0357635 0)
(2.23331 -0.0312507 0)
(2.2632 -0.025656 0)
(2.28991 -0.0190928 0)
(2.31306 -0.0117595 0)
(2.33231 -0.00365462 0)
(2.34743 0.00527026 0)
(2.35785 0.0148861 0)
(2.36411 0.0253098 0)
(2.36559 0.0364561 0)
(2.35874 0.0483813 0)
(2.34867 0.0610794 0)
(-4.94356e-05 0.000412979 0)
(-0.000278621 0.000944153 0)
(-0.000580308 0.0014331 0)
(-0.00121765 0.00158185 0)
(-0.00176532 0.0017685 0)
(-0.00268557 0.00177328 0)
(-0.00339113 0.00168757 0)
(-0.00426668 0.00142764 0)
(-0.00487556 0.00102838 0)
(-0.00556695 0.000440766 0)
(-0.00584392 -0.000289689 0)
(-0.00645538 -0.00116084 0)
(-0.00643151 -0.00217011 0)
(-0.00621126 -0.00330751 0)
(-0.00574087 -0.00458058 0)
(-0.00492299 -0.00599975 0)
(-0.003748 -0.00746261 0)
(-0.00225868 -0.00879622 0)
(-0.000380528 -0.0122021 0)
(0.00180134 -0.0148409 0)
(0.00442209 -0.0166399 0)
(0.00746754 -0.0188641 0)
(0.0110421 -0.0220482 0)
(0.0151233 -0.0240874 0)
(0.0195654 -0.0270421 0)
(0.0245358 -0.0300255 0)
(0.0301037 -0.0328745 0)
(0.0362493 -0.036302 0)
(0.0428081 -0.0388664 0)
(0.0497134 -0.041381 0)
(0.057247 -0.0438688 0)
(0.0656019 -0.0456908 0)
(0.0747827 -0.0471642 0)
(0.0847208 -0.048363 0)
(0.0954023 -0.0492674 0)
(0.106872 -0.049874 0)
(0.119131 -0.0501868 0)
(0.13218 -0.0502064 0)
(0.145743 -0.0499275 0)
(0.160063 -0.0493995 0)
(0.175626 -0.0489774 0)
(0.192185 -0.0485575 0)
(0.209512 -0.0481155 0)
(0.227666 -0.0477171 0)
(0.246402 -0.0474933 0)
(0.26561 -0.0474341 0)
(0.285349 -0.04757 0)
(0.305629 -0.0480251 0)
(0.326383 -0.048668 0)
(0.347779 -0.0494511 0)
(0.369581 -0.0503003 0)
(0.391469 -0.0515027 0)
(0.41342 -0.0532658 0)
(0.435603 -0.0554599 0)
(0.458067 -0.0578277 0)
(0.48072 -0.0601782 0)
(0.503576 -0.0624312 0)
(0.526495 -0.0642554 0)
(0.549834 -0.0710381 0)
(0.573351 -0.0738421 0)
(0.597203 -0.0747674 0)
(0.621327 -0.0760778 0)
(0.645681 -0.0778919 0)
(0.670275 -0.0795924 0)
(0.69568 -0.0807109 0)
(0.720802 -0.0824578 0)
(0.746582 -0.0837008 0)
(0.771859 -0.0845765 0)
(0.79897 -0.0871079 0)
(0.828916 -0.0875574 0)
(0.856306 -0.0847775 0)
(0.883316 -0.0866907 0)
(0.911664 -0.0876514 0)
(0.941952 -0.0886914 0)
(0.972338 -0.0899346 0)
(1.00262 -0.0911738 0)
(1.03339 -0.0922974 0)
(1.06497 -0.0933913 0)
(1.09738 -0.0946303 0)
(1.13061 -0.0961832 0)
(1.16466 -0.0980865 0)
(1.19956 -0.100273 0)
(1.23522 -0.102595 0)
(1.27154 -0.10487 0)
(1.30845 -0.106927 0)
(1.34595 -0.108689 0)
(1.38406 -0.110014 0)
(1.42269 -0.111007 0)
(1.4622 -0.111403 0)
(1.50182 -0.111263 0)
(1.54252 -0.110711 0)
(1.58309 -0.108744 0)
(1.62314 -0.106788 0)
(1.66385 -0.105944 0)
(1.70559 -0.104096 0)
(1.74743 -0.100793 0)
(1.78897 -0.0971272 0)
(1.82901 -0.0932781 0)
(1.87283 -0.0889445 0)
(1.91207 -0.0839884 0)
(1.95109 -0.0782588 0)
(1.9901 -0.0714798 0)
(2.02841 -0.063452 0)
(2.06555 -0.0541525 0)
(2.10124 -0.0436593 0)
(2.13521 -0.0320344 0)
(2.16714 -0.0192961 0)
(2.19665 -0.00549195 0)
(2.22333 0.0094056 0)
(2.24678 0.0256217 0)
(2.26667 0.0431459 0)
(2.28238 0.0618336 0)
(-3.74829e-05 0.00052513 0)
(-0.00026428 0.00123486 0)
(-0.000539079 0.00201814 0)
(-0.00128809 0.00226435 0)
(-0.00179388 0.00266978 0)
(-0.00276523 0.00259127 0)
(-0.00336619 0.00262018 0)
(-0.00443611 0.00218632 0)
(-0.00499118 0.00185041 0)
(-0.00594107 0.000917297 0)
(-0.00653448 0.000413489 0)
(-0.00714319 -0.000627926 0)
(-0.00739926 -0.00175116 0)
(-0.00761534 -0.0033021 0)
(-0.00767227 -0.00503764 0)
(-0.00744072 -0.00700708 0)
(-0.00701622 -0.00912318 0)
(-0.00593768 -0.011106 0)
(-0.00505363 -0.0140221 0)
(-0.00373545 -0.0156328 0)
(-0.00222412 -0.0199098 0)
(-0.00033957 -0.0227246 0)
(0.00190252 -0.0253417 0)
(0.00447005 -0.0282085 0)
(0.00765955 -0.0310479 0)
(0.0101704 -0.0340919 0)
(0.0150241 -0.0370929 0)
(0.0161641 -0.0400947 0)
(0.0221192 -0.0430987 0)
(0.0278006 -0.0459877 0)
(0.0333306 -0.0488457 0)
(0.0393951 -0.051559 0)
(0.0460896 -0.0539678 0)
(0.053394 -0.0559141 0)
(0.0613369 -0.0576929 0)
(0.0699998 -0.0591374 0)
(0.0794398 -0.060244 0)
(0.0897362 -0.0610627 0)
(0.100553 -0.0608005 0)
(0.113312 -0.0642789 0)
(0.125173 -0.0650435 0)
(0.138087 -0.0644376 0)
(0.151847 -0.0655901 0)
(0.166219 -0.0660272 0)
(0.181282 -0.066355 0)
(0.196945 -0.066802 0)
(0.213175 -0.0675672 0)
(0.229949 -0.0685166 0)
(0.247467 -0.0702813 0)
(0.26611 -0.0720344 0)
(0.284494 -0.0724124 0)
(0.302265 -0.0728965 0)
(0.320251 -0.0744564 0)
(0.338931 -0.0767024 0)
(0.358086 -0.0790743 0)
(0.377469 -0.0813837 0)
(0.397073 -0.0836328 0)
(0.417141 -0.0859283 0)
(0.437451 -0.0884119 0)
(0.457452 -0.0906992 0)
(0.477536 -0.0925985 0)
(0.497964 -0.0947705 0)
(0.518591 -0.0972684 0)
(0.539501 -0.0998055 0)
(0.560921 -0.101957 0)
(0.58272 -0.103728 0)
(0.604717 -0.105561 0)
(0.627045 -0.106918 0)
(0.651998 -0.106789 0)
(0.675783 -0.108674 0)
(0.698551 -0.111005 0)
(0.722064 -0.113137 0)
(0.746803 -0.114501 0)
(0.772512 -0.116079 0)
(0.798565 -0.118047 0)
(0.824872 -0.120193 0)
(0.851689 -0.122436 0)
(0.87921 -0.124786 0)
(0.907476 -0.127229 0)
(0.936442 -0.129747 0)
(0.966035 -0.132353 0)
(0.996178 -0.135059 0)
(1.02683 -0.13785 0)
(1.05801 -0.14064 0)
(1.08977 -0.143285 0)
(1.12231 -0.145834 0)
(1.15546 -0.147767 0)
(1.18976 -0.149941 0)
(1.22493 -0.150986 0)
(1.26055 -0.151786 0)
(1.29913 -0.153113 0)
(1.335 -0.149486 0)
(1.37292 -0.1471 0)
(1.41349 -0.149692 0)
(1.45513 -0.148989 0)
(1.49813 -0.144793 0)
(1.54257 -0.141308 0)
(1.58867 -0.138867 0)
(1.63587 -0.135878 0)
(1.68389 -0.131659 0)
(1.73245 -0.12636 0)
(1.78108 -0.119745 0)
(1.82937 -0.111489 0)
(1.87717 -0.101552 0)
(1.92445 -0.0900852 0)
(1.97104 -0.0772197 0)
(2.01657 -0.0629533 0)
(2.06059 -0.0471875 0)
(2.10259 -0.0297674 0)
(2.14202 -0.0105221 0)
(2.17821 0.0105565 0)
(2.21087 0.0336014 0)
(-3.91672e-05 0.000647215 0)
(-0.000235387 0.00166069 0)
(-0.000635109 0.00248899 0)
(-0.00121553 0.00305868 0)
(-0.00194163 0.00339381 0)
(-0.00267548 0.00358902 0)
(-0.00357351 0.00348491 0)
(-0.0043273 0.00326278 0)
(-0.00529415 0.0026694 0)
(-0.00589719 0.00201867 0)
(-0.00687673 0.000918908 0)
(-0.00722271 -0.00017718 0)
(-0.00792947 -0.0017398 0)
(-0.00796207 -0.00328928 0)
(-0.00824503 -0.00518229 0)
(-0.00794265 -0.00712617 0)
(-0.00776657 -0.00938472 0)
(-0.00691314 -0.0116601 0)
(-0.00617324 -0.0143883 0)
(-0.00523742 -0.017284 0)
(-0.00359364 -0.0202943 0)
(-0.00246885 -0.0236067 0)
(-0.000612631 -0.0269344 0)
(0.00108873 -0.0304742 0)
(0.0036933 -0.0338951 0)
(0.00643105 -0.0374432 0)
(0.0096322 -0.0409262 0)
(0.0133404 -0.0445411 0)
(0.0171608 -0.0485633 0)
(0.0211356 -0.0524563 0)
(0.0254765 -0.0559364 0)
(0.0304833 -0.0590716 0)
(0.0356118 -0.061991 0)
(0.0419395 -0.0647681 0)
(0.0482557 -0.0673251 0)
(0.0556924 -0.0697011 0)
(0.0634891 -0.0717991 0)
(0.0720851 -0.0736523 0)
(0.0814177 -0.0752064 0)
(0.0921027 -0.0767199 0)
(0.102531 -0.0777645 0)
(0.114417 -0.0790115 0)
(0.126135 -0.0798954 0)
(0.139324 -0.0812535 0)
(0.152772 -0.0820111 0)
(0.166194 -0.0827344 0)
(0.181777 -0.0844809 0)
(0.194837 -0.0851798 0)
(0.214248 -0.0873801 0)
(0.218978 -0.0892876 0)
(0.239568 -0.0913379 0)
(0.260264 -0.0936414 0)
(0.278755 -0.0961094 0)
(0.297396 -0.0986283 0)
(0.316341 -0.101151 0)
(0.335291 -0.103744 0)
(0.354263 -0.106427 0)
(0.373506 -0.109246 0)
(0.393252 -0.113195 0)
(0.413278 -0.116797 0)
(0.432617 -0.118175 0)
(0.451176 -0.119519 0)
(0.470084 -0.121945 0)
(0.49004 -0.125196 0)
(0.510321 -0.127759 0)
(0.530521 -0.129506 0)
(0.550675 -0.131878 0)
(0.571665 -0.133685 0)
(0.592162 -0.134547 0)
(0.613 -0.136307 0)
(0.634673 -0.138401 0)
(0.657106 -0.140683 0)
(0.679919 -0.14306 0)
(0.703086 -0.145571 0)
(0.726729 -0.148085 0)
(0.750906 -0.150529 0)
(0.775661 -0.153002 0)
(0.801034 -0.155619 0)
(0.827048 -0.158411 0)
(0.853716 -0.161373 0)
(0.881069 -0.164518 0)
(0.90908 -0.167848 0)
(0.937848 -0.171323 0)
(0.967212 -0.174858 0)
(0.997326 -0.178352 0)
(1.02885 -0.181708 0)
(1.05849 -0.18487 0)
(1.09692 -0.187767 0)
(1.11967 -0.190345 0)
(1.17099 -0.192642 0)
(1.19294 -0.194489 0)
(1.23137 -0.196078 0)
(1.30049 -0.197565 0)
(1.33265 -0.198205 0)
(1.37431 -0.198075 0)
(1.42359 -0.19784 0)
(1.47208 -0.197276 0)
(1.52134 -0.195858 0)
(1.57202 -0.193263 0)
(1.62281 -0.189267 0)
(1.67346 -0.183805 0)
(1.72423 -0.176876 0)
(1.77524 -0.168465 0)
(1.82655 -0.158536 0)
(1.87816 -0.146998 0)
(1.9298 -0.133686 0)
(1.98101 -0.118375 0)
(2.03119 -0.100844 0)
(2.07972 -0.080913 0)
(2.12593 -0.0584676 0)
(2.16944 -0.0334637 0)
(2.20862 -0.00601058 0)
(-4.25881e-05 0.000775724 0)
(-0.000238199 0.00201711 0)
(-0.000636344 0.00304883 0)
(-0.00123745 0.00375346 0)
(-0.00193515 0.00425248 0)
(-0.00273179 0.00447874 0)
(-0.00358735 0.0044534 0)
(-0.00444672 0.00417424 0)
(-0.00533616 0.00360543 0)
(-0.00611876 0.00281562 0)
(-0.00690741 0.00172842 0)
(-0.00750813 0.000432828 0)
(-0.00797105 -0.00111082 0)
(-0.008336 -0.00294146 0)
(-0.00842498 -0.00497006 0)
(-0.00843307 -0.00729505 0)
(-0.00815312 -0.00984433 0)
(-0.00766191 -0.0126167 0)
(-0.00685916 -0.0156078 0)
(-0.00586494 -0.0188207 0)
(-0.00458387 -0.0222375 0)
(-0.00305453 -0.0257707 0)
(-0.00137187 -0.0293956 0)
(0.000867931 -0.0330361 0)
(0.00331386 -0.0368008 0)
(0.00607247 -0.0406676 0)
(0.00918194 -0.0445846 0)
(0.0126483 -0.0485852 0)
(0.0164012 -0.0526618 0)
(0.0204133 -0.0566279 0)
(0.024753 -0.0603929 0)
(0.0295395 -0.0639631 0)
(0.0348121 -0.0674008 0)
(0.0405781 -0.070692 0)
(0.0468301 -0.073808 0)
(0.0536062 -0.0767482 0)
(0.0609578 -0.079467 0)
(0.0689373 -0.0819923 0)
(0.0775961 -0.0843905 0)
(0.0868263 -0.086794 0)
(0.0965545 -0.0890422 0)
(0.106944 -0.0910819 0)
(0.118098 -0.0930966 0)
(0.129816 -0.0950085 0)
(0.142226 -0.0972094 0)
(0.15567 -0.0992104 0)
(0.169685 -0.101021 0)
(0.18372 -0.10257 0)
(0.199671 -0.104197 0)
(0.215448 -0.105642 0)
(0.231844 -0.109322 0)
(0.247242 -0.112989 0)
(0.262679 -0.115813 0)
(0.278801 -0.118168 0)
(0.295625 -0.120771 0)
(0.312764 -0.123555 0)
(0.329735 -0.12651 0)
(0.3471 -0.129551 0)
(0.365449 -0.132629 0)
(0.375403 -0.135572 0)
(0.395107 -0.138277 0)
(0.419641 -0.140859 0)
(0.436139 -0.1434 0)
(0.459053 -0.145857 0)
(0.470819 -0.148204 0)
(0.498905 -0.150483 0)
(0.513284 -0.152738 0)
(0.534641 -0.15474 0)
(0.557054 -0.156824 0)
(0.57853 -0.159203 0)
(0.600904 -0.161601 0)
(0.623862 -0.163991 0)
(0.646817 -0.166536 0)
(0.669866 -0.169335 0)
(0.693446 -0.17239 0)
(0.717824 -0.175649 0)
(0.743008 -0.179086 0)
(0.768924 -0.182707 0)
(0.795546 -0.186519 0)
(0.822905 -0.190509 0)
(0.851045 -0.194653 0)
(0.879992 -0.198929 0)
(0.909761 -0.203294 0)
(0.940375 -0.207708 0)