/*--------------------------------*- C++ -*----------------------------------*\
| =========                 |                                                 |
| \\      /  F ield         | OpenFOAM: The Open Source CFD Toolbox           |
|  \\    /   O peration     | Version:  2206                                  |
|   \\  /    A nd           | Website:  www.openfoam.com                      |
|    \\/     M anipulation  |                                                 |
\*---------------------------------------------------------------------------*/
FoamFile
{
    version     2.0;
    format      ascii;
    arch        "LSB;label=32;scalar=64";
    class       volVectorField;
    location    "19.8";
    object      U;
}
// * * * * * * * * * * * * * * * * * * * * * * * * * * * * * * * * * * * * * //

dimensions      [0 1 -1 0 0 0 0];

internalField   nonuniform List<vector> 
4853
(
(-0.64687 -0.0948777 0)
(-0.49404 -0.0893108 0)
(-0.353801 -0.0821149 0)
(-0.223666 -0.0746009 0)
(-0.106663 -0.0666838 0)
(-0.00352635 -0.05915 0)
(0.0879913 -0.0515059 0)
(0.161815 -0.0451223 0)
(0.231455 -0.0409511 0)
(0.290713 -0.0382804 0)
(0.343418 -0.037436 0)
(0.395156 -0.0391208 0)
(0.447827 -0.0460084 0)
(0.509292 -0.0454255 0)
(-0.205601 -0.256761 0)
(-0.069995 -0.242344 0)
(0.0570647 -0.220939 0)
(0.171275 -0.19655 0)
(0.271741 -0.17154 0)
(0.356908 -0.14819 0)
(0.427457 -0.127153 0)
(0.485734 -0.109547 0)
(0.533059 -0.0956442 0)
(0.570395 -0.0843763 0)
(0.598842 -0.0758568 0)
(0.619473 -0.0705614 0)
(0.629043 -0.0726686 0)
(0.628039 -0.0881437 0)
(0.435022 -0.412341 0)
(0.539087 -0.391765 0)
(0.636301 -0.360385 0)
(0.725023 -0.321691 0)
(0.803944 -0.280037 0)
(0.872281 -0.23866 0)
(0.929741 -0.199423 0)
(0.975972 -0.164101 0)
(1.01105 -0.133865 0)
(1.03524 -0.108315 0)
(1.04889 -0.0882647 0)
(1.05338 -0.0745643 0)
(1.05005 -0.0665672 0)
(1.03965 -0.0637847 0)
(1.01993 -0.502611 0)
(1.07508 -0.477918 0)
(1.12656 -0.440199 0)
(1.17423 -0.394568 0)
(1.21802 -0.34534 0)
(1.25742 -0.296736 0)
(1.29297 -0.250419 0)
(1.32467 -0.208039 0)
(1.35244 -0.170706 0)
(1.37713 -0.136508 0)
(1.39758 -0.107183 0)
(1.41407 -0.0815751 0)
(1.42428 -0.0630407 0)
(1.42734 -0.051786 0)
(1.5077 -0.533091 0)
(1.51147 -0.508219 0)
(1.51552 -0.468892 0)
(1.52101 -0.422007 0)
(1.52856 -0.372022 0)
(1.53828 -0.322029 0)
(1.54976 -0.274725 0)
(1.5627 -0.230948 0)
(1.57629 -0.191962 0)
(1.59003 -0.157302 0)
(1.60347 -0.127098 0)
(1.61645 -0.101252 0)
(1.62815 -0.0804482 0)
(1.63772 -0.0636161 0)
(1.82857 -0.509957 0)
(1.79324 -0.485428 0)
(1.76289 -0.449941 0)
(1.7388 -0.407977 0)
(1.7215 -0.363286 0)
(1.71062 -0.318929 0)
(1.70522 -0.276347 0)
(1.70435 -0.236509 0)
(1.70707 -0.20031 0)
(1.7125 -0.167409 0)
(1.7199 -0.138127 0)
(1.72875 -0.112185 0)
(1.7383 -0.0896847 0)
(1.74749 -0.0706706 0)
(1.98614 -0.452188 0)
(1.93533 -0.434273 0)
(1.89152 -0.407303 0)
(1.85573 -0.374594 0)
(1.82795 -0.338921 0)
(1.80753 -0.302403 0)
(1.79351 -0.26647 0)
(1.78496 -0.232138 0)
(1.78094 -0.20021 0)
(1.78052 -0.170809 0)
(1.78298 -0.144113 0)
(1.78764 -0.120286 0)
(1.79385 -0.0994696 0)
(1.80105 -0.0812626 0)
(2.05118 -0.388875 0)
(1.99969 -0.378515 0)
(1.95466 -0.360098 0)
(1.91672 -0.33609 0)
(1.88592 -0.308678 0)
(1.86188 -0.279695 0)
(1.84394 -0.25047 0)
(1.83135 -0.221923 0)
(1.82336 -0.194769 0)
(1.81922 -0.16937 0)
(1.81826 -0.145973 0)
(1.81991 -0.124615 0)
(1.82364 -0.105277 0)
(1.82886 -0.0879764 0)
(2.06824 -0.331243 0)
(2.02188 -0.326292 0)
(1.98054 -0.314432 0)
(1.94485 -0.297517 0)
(1.91507 -0.277237 0)
(1.89102 -0.255009 0)
(1.87229 -0.231911 0)
(1.85836 -0.2088 0)
(1.84866 -0.186333 0)
(1.84257 -0.164872 0)
(1.83955 -0.144687 0)
(1.83909 -0.126013 0)
(1.84071 -0.108951 0)
(1.84402 -0.0934573 0)
(2.06468 -0.280949 0)
(2.02547 -0.280195 0)
(1.98992 -0.273614 0)
(1.95868 -0.262514 0)
(1.93203 -0.248122 0)
(1.90995 -0.231534 0)
(1.89223 -0.213664 0)
(1.87852 -0.195253 0)
(1.86842 -0.176887 0)
(1.86148 -0.158997 0)
(1.85731 -0.141894 0)
(1.85549 -0.125785 0)
(1.85566 -0.110792 0)
(1.85749 -0.0969727 0)
(2.05744 -0.240255 0)
(2.02534 -0.242358 0)
(1.99569 -0.239497 0)
(1.9691 -0.232607 0)
(1.94589 -0.222615 0)
(1.92617 -0.210383 0)
(1.90989 -0.196663 0)
(1.89686 -0.182095 0)
(1.88685 -0.167213 0)
(1.87956 -0.152413 0)
(1.8747 -0.137993 0)
(1.87196 -0.124192 0)
(1.87106 -0.111179 0)
(1.87173 -0.0990474 0)
(2.05148 -0.20722 0)
(2.02499 -0.210974 0)
(2.00009 -0.210572 0)
(1.97733 -0.206678 0)
(1.95705 -0.19998 0)
(1.93945 -0.191142 0)
(1.92457 -0.180765 0)
(1.91235 -0.169385 0)
(1.90264 -0.157456 0)
(1.89526 -0.145342 0)
(1.89 -0.133331 0)
(1.88665 -0.121657 0)
(1.88497 -0.110499 0)
(1.88478 -0.0999695 0)
(2.04499 -0.179865 0)
(2.02302 -0.184662 0)
(2.00206 -0.185981 0)
(1.9826 -0.18429 0)
(1.96498 -0.1801 0)
(1.94941 -0.173918 0)
(1.93598 -0.166225 0)
(1.9247 -0.15746 0)
(1.91551 -0.148014 0)
(1.90829 -0.138211 0)
(1.90291 -0.128308 0)
(1.89922 -0.11853 0)
(1.89704 -0.109062 0)
(1.89621 -0.100032 0)
(2.03813 -0.157431 0)
(2.01989 -0.162767 0)
(2.00225 -0.1652 0)
(1.98566 -0.165064 0)
(1.97041 -0.162733 0)
(1.95672 -0.158597 0)
(1.94472 -0.153035 0)
(1.93445 -0.146404 0)
(1.9259 -0.139033 0)
(1.91901 -0.1312 0)
(1.91371 -0.123133 0)
(1.90987 -0.11504 0)
(1.90738 -0.107103 0)
(1.90612 -0.0994551 0)
(2.03119 -0.138783 0)
(2.01602 -0.144379 0)
(2.00119 -0.147553 0)
(1.98706 -0.148539 0)
(1.97392 -0.147613 0)
(1.96196 -0.145072 0)
(1.95132 -0.141212 0)
(1.94207 -0.136323 0)
(1.93424 -0.130677 0)
(1.92779 -0.124513 0)
(1.92269 -0.118029 0)
(1.91886 -0.111412 0)
(1.91623 -0.104839 0)
(1.91469 -0.098443 0)
(2.02442 -0.12339 0)
(2.0118 -0.129043 0)
(1.99934 -0.13267 0)
(1.98734 -0.134435 0)
(1.97605 -0.134545 0)
(1.96565 -0.133223 0)
(1.95628 -0.130703 0)
(1.94801 -0.127218 0)
(1.9409 -0.122995 0)
(1.93495 -0.118233 0)
(1.93014 -0.113104 0)
(1.92642 -0.107772 0)
(1.92375 -0.102403 0)
(1.92205 -0.0971298 0)
(2.01798 -0.110627 0)
(2.00749 -0.116204 0)
(1.99702 -0.120085 0)
(1.98685 -0.122385 0)
(1.97717 -0.123256 0)
(1.96816 -0.122869 0)
(1.95994 -0.121408 0)
(1.95261 -0.119059 0)
(1.94621 -0.116007 0)
(1.94078 -0.112421 0)
(1.9363 -0.108446 0)
(1.93276 -0.104225 0)
(1.93013 -0.0999124 0)
(1.92835 -0.0956364 0)
(2.01198 -0.100057 0)
(2.00325 -0.105478 0)
(1.99448 -0.109472 0)
(1.98586 -0.112125 0)
(1.97758 -0.113547 0)
(1.9698 -0.113869 0)
(1.96263 -0.113236 0)
(1.95616 -0.111797 0)
(1.95044 -0.109704 0)
(1.94552 -0.107097 0)
(1.9414 -0.104099 0)
(1.93808 -0.100834 0)
(1.93554 -0.0974408 0)
(1.93376 -0.0940439 0)
(2.00646 -0.0913256 0)
(1.99922 -0.0965368 0)
(1.99188 -0.100543 0)
(1.98459 -0.103409 0)
(1.97753 -0.105219 0)
(1.97083 -0.106072 0)
(1.96459 -0.106083 0)
(1.9589 -0.10537 0)
(1.95382 -0.104058 0)
(1.94939 -0.102263 0)
(1.94563 -0.10009 0)
(1.94255 -0.0976457 0)
(1.94015 -0.0950506 0)
(1.9384 -0.0924216 0)
(2.00149 -0.084116 0)
(1.99551 -0.089075 0)
(1.98937 -0.0930252 0)
(1.98323 -0.0960071 0)
(1.97722 -0.0980797 0)
(1.97146 -0.0993262 0)
(1.96605 -0.099833 0)
(1.96107 -0.0996968 0)
(1.95657 -0.0990167 0)
(1.9526 -0.0978915 0)
(1.9492 -0.096414 0)
(1.94636 -0.0946747 0)
(1.94411 -0.0927713 0)
(1.94243 -0.0908078 0)
(1.99711 -0.0782153 0)
(1.99218 -0.0829066 0)
(1.98707 -0.0867448 0)
(1.98191 -0.0897603 0)
(1.9768 -0.0920025 0)
(1.97187 -0.0935265 0)
(1.96719 -0.0944088 0)
(1.96284 -0.0947237 0)
(1.95888 -0.0945524 0)
(1.95534 -0.0939749 0)
(1.95227 -0.0930762 0)
(1.94968 -0.0919379 0)
(1.94758 -0.0906342 0)
(1.94598 -0.0892453 0)
(1.99338 -0.073363 0)
(1.98934 -0.0777747 0)
(1.9851 -0.0814683 0)
(1.98078 -0.0844641 0)
(1.97646 -0.0867996 0)
(1.97225 -0.0885197 0)
(1.96822 -0.0896807 0)
(1.96444 -0.090346 0)
(1.96095 -0.090581 0)
(1.95782 -0.0904533 0)
(1.95507 -0.090036 0)
(1.9527 -0.0893979 0)
(1.95076 -0.088605 0)
(1.94923 -0.0877161 0)
(1.99037 -0.069486 0)
(1.98709 -0.0736109 0)
(1.9836 -0.0771315 0)
(1.97999 -0.0800653 0)
(1.97636 -0.0824384 0)
(1.97277 -0.0842869 0)
(1.96931 -0.085655 0)
(1.96602 -0.0865916 0)
(1.96297 -0.0871496 0)
(1.9602 -0.087384 0)
(1.95773 -0.0873526 0)
(1.95558 -0.087119 0)
(1.95376 -0.086747 0)
(1.95227 -0.0862869 0)
(1.98811 -0.0663104 0)
(1.98545 -0.0701471 0)
(1.98256 -0.0734721 0)
(1.97953 -0.076302 0)
(1.97644 -0.0786562 0)
(1.97334 -0.0805637 0)
(1.97032 -0.0820624 0)
(1.96741 -0.0831952 0)
(1.96467 -0.0840071 0)
(1.96214 -0.0845367 0)
(1.95984 -0.0848131 0)
(1.95778 -0.0848864 0)
(1.95599 -0.0848305 0)
(1.95448 -0.0847088 0)
(1.98586 -0.0638075 0)
(1.98359 -0.0673448 0)
(1.98107 -0.0704606 0)
(1.97838 -0.0731651 0)
(1.97558 -0.0754671 0)
(1.97274 -0.0773906 0)
(1.96991 -0.0789654 0)
(1.96714 -0.0802182 0)
(1.96446 -0.0811827 0)
(1.96189 -0.0819008 0)
(1.95947 -0.0824376 0)
(1.95734 -0.0828272 0)
(1.95549 -0.0831033 0)
(1.95389 -0.0833032 0)
(1.97887 -0.0615649 0)
(1.97646 -0.0647932 0)
(1.97378 -0.0676719 0)
(1.97088 -0.070205 0)
(1.96783 -0.0724038 0)
(1.96469 -0.0742861 0)
(1.96149 -0.0758723 0)
(1.95829 -0.0771831 0)
(1.95512 -0.0782435 0)
(1.95202 -0.0790964 0)
(1.949 -0.079801 0)
(1.94603 -0.0803944 0)
(1.94312 -0.0808871 0)
(1.94028 -0.0813033 0)
(1.94796 -0.0586294 0)
(1.94423 -0.0614695 0)
(1.94009 -0.0640261 0)
(1.93561 -0.0663061 0)
(1.93084 -0.0683177 0)
(1.92583 -0.0700705 0)
(1.92062 -0.0715772 0)
(1.91524 -0.0728536 0)
(1.90974 -0.0739193 0)
(1.90412 -0.0747963 0)
(1.8984 -0.075509 0)
(1.89257 -0.0760788 0)
(1.88662 -0.0765284 0)
(1.88055 -0.0768868 0)
(1.83881 -0.0538053 0)
(1.83074 -0.0560792 0)
(1.82203 -0.0581222 0)
(1.81273 -0.0599395 0)
(1.80288 -0.0615377 0)
(1.79254 -0.062926 0)
(1.78178 -0.0641099 0)
(1.77061 -0.0650975 0)
(1.75907 -0.0659048 0)
(1.74718 -0.0665485 0)
(1.73493 -0.0670459 0)
(1.72229 -0.0674184 0)
(1.70924 -0.0676839 0)
(1.69575 -0.0678557 0)
(1.50072 -0.0404591 0)
(1.48356 -0.0418219 0)
(1.4655 -0.0430163 0)
(1.44661 -0.0440476 0)
(1.42695 -0.0449247 0)
(1.4066 -0.0456552 0)
(1.3856 -0.0462342 0)
(1.36402 -0.0466342 0)
(1.34174 -0.0468123 0)
(1.31854 -0.0467519 0)
(1.29442 -0.046487 0)
(1.26941 -0.0460711 0)
(1.24354 -0.045545 0)
(1.21685 -0.0449238 0)
(0.655203 -0.0177321 0)
(0.629277 -0.0178772 0)
(0.602741 -0.0179515 0)
(0.575698 -0.0179667 0)
(0.548243 -0.0179325 0)
(0.520471 -0.0178511 0)
(0.492467 -0.0177024 0)
(0.464328 -0.0174162 0)
(0.436227 -0.0168605 0)
(0.408818 -0.0159368 0)
(0.38224 -0.0146738 0)
(0.356423 -0.0131752 0)
(0.331452 -0.0115313 0)
(0.307464 -0.00978118 0)
(0.514033 -0.196622 0)
(0.389374 -0.272434 0)
(0.240328 -0.27848 0)
(0.156885 -0.253966 0)
(0.0909434 -0.23688 0)
(0.0309406 -0.230854 0)
(-0.0246391 -0.228966 0)
(-0.0774836 -0.22804 0)
(-0.126941 -0.226095 0)
(-0.170677 -0.220428 0)
(-0.205729 -0.208522 0)
(-0.230027 -0.18947 0)
(-0.24216 -0.163868 0)
(-0.241967 -0.130187 0)
(-0.229785 -0.0883791 0)
(-0.206988 -0.0388695 0)
(-0.174682 0.0195969 0)
(-0.135392 0.0830581 0)
(-0.0905521 0.150493 0)
(-0.0416481 0.220945 0)
(0.0100658 0.293569 0)
(0.0640149 0.366863 0)
(0.120377 0.439084 0)
(0.178795 0.508194 0)
(0.240394 0.571906 0)
(0.306944 0.627657 0)
(0.380496 0.673055 0)
(0.462854 0.703811 0)
(0.556138 0.71586 0)
(0.661816 0.705596 0)
(0.779193 0.670882 0)
(0.905785 0.61092 0)
(1.03788 0.526417 0)
(1.17213 0.418874 0)
(1.30626 0.290431 0)
(1.43833 0.145388 0)
(1.56204 -0.0049 0)
(1.67119 -0.148479 0)
(1.76206 -0.277197 0)
(1.8325 -0.385692 0)
(1.88272 -0.47221 0)
(1.9145 -0.537475 0)
(1.93059 -0.583431 0)
(1.93448 -0.612761 0)
(1.92887 -0.629392 0)
(1.91457 -0.635146 0)
(1.89496 -0.631541 0)
(1.87216 -0.622085 0)
(1.84781 -0.609406 0)
(1.82345 -0.594966 0)
(1.80008 -0.579957 0)
(1.77794 -0.565047 0)
(1.7571 -0.550622 0)
(1.73752 -0.536921 0)
(1.71906 -0.524082 0)
(1.70158 -0.512161 0)
(1.68491 -0.501171 0)
(1.66887 -0.491097 0)
(1.65331 -0.481909 0)
(1.63806 -0.473568 0)
(1.62297 -0.466025 0)
(1.60791 -0.459228 0)
(1.59275 -0.453127 0)
(1.57735 -0.447696 0)
(1.56159 -0.442916 0)
(1.5453 -0.438758 0)
(1.52834 -0.435175 0)
(1.51063 -0.432044 0)
(1.49216 -0.42915 0)
(1.47291 -0.426265 0)
(1.45275 -0.423367 0)
(1.43115 -0.420896 0)
(1.40706 -0.419938 0)
(1.37916 -0.421888 0)
(1.34653 -0.427456 0)
(1.30952 -0.43536 0)
(1.27081 -0.441594 0)
(1.23384 -0.441211 0)
(1.20125 -0.429427 0)
(1.17636 -0.402607 0)
(1.16062 -0.359558 0)
(1.15472 -0.301836 0)
(1.15707 -0.232537 0)
(1.16731 -0.155657 0)
(1.18335 -0.0758543 0)
(1.20349 0.00241793 0)
(1.22666 0.0766466 0)
(1.25201 0.14516 0)
(1.27872 0.206805 0)
(1.306 0.260913 0)
(1.33318 0.307239 0)
(1.3597 0.345902 0)
(1.38509 0.377305 0)
(1.40904 0.402059 0)
(1.43131 0.420909 0)
(1.45179 0.434674 0)
(1.47041 0.444199 0)
(1.4872 0.450319 0)
(1.50222 0.453838 0)
(1.51558 0.455514 0)
(1.52743 0.456027 0)
(1.53795 0.455951 0)
(1.54735 0.455739 0)
(1.55581 0.455733 0)
(1.56349 0.456197 0)
(1.57049 0.457386 0)
(1.57689 0.459617 0)
(1.58271 0.46321 0)
(1.58798 0.468468 0)
(1.59275 0.475713 0)
(1.597 0.485245 0)
(1.60071 0.497252 0)
(1.6039 0.51164 0)
(1.60669 0.527755 0)
(1.60929 0.543954 0)
(1.61193 0.558584 0)
(1.61469 0.570293 0)
(1.61741 0.578132 0)
(1.61965 0.581846 0)
(1.62183 0.581324 0)
(1.62351 0.571815 0)
(1.62455 0.551732 0)
(1.62505 0.522176 0)
(1.62515 0.483082 0)
(1.625 0.434722 0)
(1.62476 0.377689 0)
(1.62464 0.312889 0)
(0.601031 -0.150125 0)
(0.531461 -0.183145 0)
(0.426771 -0.184158 0)
(0.344242 -0.179535 0)
(0.284779 -0.176712 0)
(0.226996 -0.175094 0)
(0.170354 -0.174702 0)
(0.115992 -0.175507 0)
(0.0648682 -0.177379 0)
(0.0195986 -0.178537 0)
(-0.017498 -0.176425 0)
(-0.0446948 -0.168793 0)
(-0.0616792 -0.154358 0)
(-0.0681595 -0.132294 0)
(-0.0641293 -0.101061 0)
(-0.0507249 -0.0618718 0)
(-0.0302085 -0.0158004 0)
(-0.00212373 0.0377107 0)
(0.0322555 0.0972634 0)
(0.0728926 0.161301 0)
(0.119543 0.228398 0)
(0.172608 0.29657 0)
(0.232509 0.363655 0)
(0.299767 0.427217 0)
(0.375188 0.484427 0)
(0.45961 0.532176 0)
(0.553849 0.567061 0)
(0.658398 0.585844 0)
(0.77293 0.585753 0)
(0.895972 0.564954 0)
(1.02486 0.522732 0)
(1.15671 0.459178 0)
(1.28945 0.374553 0)
(1.42245 0.268626 0)
(1.55505 0.142634 0)
(1.68106 0.00553758 0)
(1.79118 -0.128706 0)
(1.88065 -0.250933 0)
(1.94736 -0.355488 0)
(1.9919 -0.440026 0)
(2.01677 -0.504759 0)
(2.02556 -0.551482 0)
(2.02195 -0.583089 0)
(2.00814 -0.602455 0)
(1.9864 -0.610321 0)
(1.95994 -0.60904 0)
(1.93102 -0.601999 0)
(1.90157 -0.591616 0)
(1.87298 -0.57941 0)
(1.84583 -0.566329 0)
(1.82032 -0.552995 0)
(1.79648 -0.5398 0)
(1.77423 -0.527 0)
(1.75342 -0.514765 0)
(1.73386 -0.503195 0)
(1.71535 -0.492339 0)
(1.69771 -0.482206 0)
(1.68076 -0.472791 0)
(1.66432 -0.464075 0)
(1.64824 -0.456032 0)
(1.63237 -0.448628 0)
(1.61658 -0.44182 0)
(1.60072 -0.435567 0)
(1.58469 -0.429838 0)
(1.56837 -0.424602 0)
(1.55161 -0.419821 0)
(1.53427 -0.415468 0)
(1.51623 -0.411485 0)
(1.49741 -0.407737 0)
(1.47784 -0.403994 0)
(1.45752 -0.400032 0)
(1.43627 -0.395861 0)
(1.4135 -0.391991 0)
(1.38807 -0.389575 0)
(1.35867 -0.389932 0)
(1.3246 -0.393471 0)
(1.28669 -0.398428 0)
(1.24827 -0.400534 0)
(1.21267 -0.394966 0)
(1.18299 -0.377269 0)
(1.16225 -0.344855 0)
(1.15165 -0.29754 0)
(1.15004 -0.237906 0)
(1.15715 -0.169217 0)
(1.17136 -0.0954106 0)
(1.19022 -0.0212632 0)
(1.2124 0.0498817 0)
(1.23697 0.116298 0)
(1.26309 0.176746 0)
(1.28999 0.230459 0)
(1.31702 0.277083 0)
(1.34361 0.316615 0)
(1.36931 0.349333 0)
(1.39377 0.375725 0)
(1.41675 0.396423 0)
(1.43809 0.412153 0)
(1.45773 0.423677 0)
(1.47565 0.431764 0)
(1.4919 0.437165 0)
(1.50657 0.440584 0)
(1.5198 0.442658 0)
(1.53177 0.443933 0)
(1.54265 0.444858 0)
(1.55263 0.445798 0)
(1.56185 0.447064 0)
(1.57042 0.448964 0)
(1.57844 0.451839 0)
(1.58593 0.456013 0)
(1.59296 0.461813 0)
(1.59957 0.469586 0)
(1.60577 0.479641 0)
(1.6116 0.492145 0)
(1.61713 0.506916 0)
(1.6226 0.523162 0)
(1.62817 0.539243 0)
(1.63398 0.553706 0)
(1.63995 0.565463 0)
(1.64566 0.57382 0)
(1.65087 0.578344 0)
(1.65635 0.577371 0)
(1.66177 0.567864 0)
(1.66671 0.54876 0)
(1.67089 0.519895 0)
(1.67445 0.481317 0)
(1.67751 0.433314 0)
(1.68017 0.376472 0)
(1.68254 0.31169 0)
(1.02065 -0.0693562 0)
(0.981636 -0.0740771 0)
(0.920236 -0.0725792 0)
(0.847257 -0.0734635 0)
(0.772227 -0.0806946 0)
(0.694697 -0.0910408 0)
(0.617033 -0.101001 0)
(0.543743 -0.109838 0)
(0.4757 -0.118572 0)
(0.412893 -0.127589 0)
(0.355655 -0.13568 0)
(0.305905 -0.140572 0)
(0.265603 -0.13984 0)
(0.236538 -0.131408 0)
(0.220089 -0.113125 0)
(0.217007 -0.0852012 0)
(0.226104 -0.0477403 0)
(0.24663 -0.0010645 0)
(0.276886 0.0523018 0)
(0.315214 0.110055 0)
(0.361304 0.170106 0)
(0.415416 0.23025 0)
(0.477955 0.28825 0)
(0.549555 0.341698 0)
(0.630714 0.387938 0)
(0.721681 0.42421 0)
(0.822288 0.447868 0)
(0.931682 0.45654 0)
(1.04829 0.448442 0)
(1.17007 0.422489 0)
(1.29511 0.377984 0)
(1.42254 0.313849 0)
(1.55269 0.228186 0)
(1.68478 0.120861 0)
(1.81062 0.000518673 0)
(1.91856 -0.118914 0)
(2.00315 -0.228622 0)
(2.0627 -0.323626 0)
(2.09888 -0.402031 0)
(2.11519 -0.463647 0)
(2.11569 -0.509844 0)
(2.10388 -0.542767 0)
(2.08218 -0.563846 0)
(2.05373 -0.57405 0)
(2.02142 -0.576158 0)
(1.98744 -0.572905 0)
(1.95384 -0.566109 0)
(1.92168 -0.557111 0)
(1.89134 -0.546825 0)
(1.86295 -0.535844 0)
(1.8365 -0.524583 0)
(1.81187 -0.513334 0)
(1.78891 -0.5023 0)
(1.7674 -0.491612 0)
(1.74715 -0.481357 0)
(1.72796 -0.471593 0)
(1.70963 -0.462346 0)
(1.692 -0.453622 0)
(1.6749 -0.445414 0)
(1.65818 -0.437709 0)
(1.64171 -0.430484 0)
(1.62535 -0.423709 0)
(1.60897 -0.417354 0)
(1.59246 -0.411392 0)
(1.57571 -0.405788 0)
(1.55861 -0.400492 0)
(1.54102 -0.395466 0)
(1.52283 -0.390681 0)
(1.50391 -0.386074 0)
(1.48422 -0.381497 0)
(1.46379 -0.376707 0)
(1.44266 -0.371481 0)
(1.42063 -0.365848 0)
(1.39704 -0.360389 0)
(1.37072 -0.356293 0)
(1.34042 -0.354797 0)
(1.30567 -0.356046 0)
(1.26773 -0.357938 0)
(1.23029 -0.356226 0)
(1.1967 -0.346319 0)
(1.17034 -0.324238 0)
(1.15387 -0.288108 0)
(1.14861 -0.23883 0)
(1.15024 -0.179363 0)
(1.1619 -0.112923 0)
(1.17922 -0.043653 0)
(1.20026 0.024137 0)
(1.224 0.0882215 0)
(1.2495 0.147254 0)
(1.27599 0.200346 0)
(1.3028 0.247032 0)
(1.32937 0.287193 0)
(1.35526 0.320991 0)
(1.38011 0.348798 0)
(1.40365 0.371149 0)
(1.42573 0.38867 0)
(1.44624 0.402043 0)
(1.46516 0.411968 0)
(1.48252 0.419136 0)
(1.4984 0.424199 0)
(1.51293 0.427751 0)
(1.52626 0.430314 0)
(1.53856 0.432332 0)
(1.54998 0.434189 0)
(1.56068 0.436227 0)
(1.57076 0.438791 0)
(1.58033 0.44224 0)
(1.58944 0.446916 0)
(1.59817 0.453168 0)
(1.60656 0.461351 0)
(1.61468 0.471761 0)
(1.62262 0.484507 0)
(1.63055 0.499321 0)
(1.6387 0.515372 0)
(1.64716 0.531161 0)
(1.65594 0.545422 0)
(1.66486 0.557215 0)
(1.67359 0.565805 0)
(1.68228 0.570367 0)
(1.69133 0.569123 0)
(1.70035 0.559981 0)
(1.709 0.5416 0)
(1.71695 0.513519 0)
(1.72414 0.475692 0)
(1.73059 0.42837 0)
(1.7363 0.372133 0)
(1.74128 0.307881 0)
(1.42182 -0.0464097 0)
(1.405 -0.0450158 0)
(1.37958 -0.0390915 0)
(1.35018 -0.0293061 0)
(1.3177 -0.019725 0)
(1.27981 -0.0138061 0)
(1.2355 -0.0134572 0)
(1.18608 -0.018715 0)
(1.13313 -0.0290775 0)
(1.07817 -0.0425921 0)
(1.02261 -0.0569037 0)
(0.967522 -0.0691423 0)
(0.913228 -0.0766092 0)
(0.860436 -0.0778946 0)
(0.810242 -0.0728597 0)
(0.765525 -0.0612589 0)
(0.729495 -0.0423493 0)
(0.705056 -0.0149278 0)
(0.694677 0.0212996 0)
(0.700806 0.0645748 0)
(0.723447 0.112281 0)
(0.761367 0.161452 0)
(0.813198 0.209067 0)
(0.877731 0.252203 0)
(0.953901 0.288156 0)
(1.04067 0.314513 0)
(1.13684 0.329209 0)
(1.24098 0.330495 0)
(1.35161 0.316873 0)
(1.46765 0.286814 0)
(1.58867 0.238224 0)
(1.71431 0.168696 0)
(1.84156 0.0790804 0)
(1.95852 -0.0204513 0)
(2.05464 -0.118978 0)
(2.1257 -0.210136 0)
(2.17204 -0.290215 0)
(2.19627 -0.357989 0)
(2.20166 -0.414065 0)
(2.19303 -0.458617 0)
(2.17345 -0.49189 0)
(2.1454 -0.514573 0)
(2.11194 -0.527972 0)
(2.07558 -0.534376 0)
(2.03849 -0.535688 0)
(2.00225 -0.53328 0)
(1.96763 -0.528261 0)
(1.935 -0.521471 0)
(1.90447 -0.51351 0)
(1.876 -0.504811 0)
(1.84947 -0.495696 0)
(1.8247 -0.4864 0)
(1.80151 -0.477096 0)
(1.7797 -0.467911 0)
(1.75908 -0.458936 0)
(1.73947 -0.450235 0)
(1.72069 -0.441853 0)
(1.70259 -0.433815 0)
(1.68502 -0.426128 0)
(1.66785 -0.418787 0)
(1.65093 -0.411779 0)
(1.63416 -0.40508 0)
(1.61741 -0.398665 0)
(1.60058 -0.392518 0)
(1.58355 -0.386612 0)
(1.56621 -0.380897 0)
(1.54849 -0.375319 0)
(1.53025 -0.369834 0)
(1.5114 -0.364409 0)
(1.49182 -0.358981 0)
(1.47149 -0.353401 0)
(1.45048 -0.347409 0)
(1.42883 -0.340776 0)
(1.40635 -0.333555 0)
(1.38233 -0.326394 0)
(1.3556 -0.320519 0)
(1.32498 -0.317097 0)
(1.29024 -0.316063 0)
(1.2531 -0.315121 0)
(1.21741 -0.310194 0)
(1.18628 -0.296963 0)
(1.16314 -0.272026 0)
(1.15087 -0.234113 0)
(1.1488 -0.184935 0)
(1.15502 -0.127281 0)
(1.17003 -0.0643801 0)
(1.18962 -0.000441326 0)
(1.21237 0.0610022 0)
(1.2372 0.118367 0)
(1.26323 0.170613 0)
(1.2898 0.21714 0)
(1.31632 0.25771 0)
(1.34235 0.292371 0)
(1.36752 0.321395 0)
(1.39156 0.345209 0)
(1.41428 0.36435 0)
(1.43558 0.379418 0)
(1.45542 0.391044 0)
(1.47382 0.399856 0)
(1.49083 0.406455 0)
(1.50659 0.411397 0)
(1.52121 0.415179 0)
(1.53486 0.41824 0)
(1.54767 0.420973 0)
(1.55979 0.423744 0)
(1.57133 0.426924 0)
(1.5824 0.43089 0)
(1.59307 0.435998 0)
(1.60342 0.442608 0)
(1.61353 0.451066 0)
(1.62353 0.461627 0)
(1.63355 0.474337 0)
(1.64381 0.488895 0)
(1.65452 0.504524 0)
(1.66568 0.519904 0)
(1.67723 0.533871 0)
(1.68903 0.545539 0)
(1.70092 0.554082 0)
(1.7131 0.558452 0)
(1.72565 0.556996 0)
(1.73823 0.547987 0)
(1.75057 0.530174 0)
(1.76227 0.50292 0)
(1.77313 0.466043 0)
(1.78299 0.41974 0)
(1.79175 0.36457 0)
(1.79933 0.301425 0)
(1.64415 -0.0492155 0)
(1.64661 -0.0360281 0)
(1.64497 -0.0213325 0)
(1.64021 -0.00625252 0)
(1.6346 0.00521992 0)
(1.62684 0.0106496 0)
(1.61663 0.0114007 0)
(1.60398 0.0101308 0)
(1.58823 0.00678078 0)
(1.56813 0.00100022 0)
(1.54319 -0.00642261 0)
(1.51387 -0.0140488 0)
(1.48158 -0.0199175 0)
(1.44862 -0.0214733 0)
(1.4163 -0.0173716 0)
(1.38534 -0.00725457 0)
(1.35569 0.00853916 0)
(1.32859 0.0278147 0)
(1.30673 0.0499406 0)
(1.29198 0.0749285 0)
(1.2869 0.102371 0)
(1.29416 0.130957 0)
(1.31553 0.159083 0)
(1.3518 0.184629 0)
(1.40283 0.205196 0)
(1.46767 0.218379 0)
(1.54469 0.221969 0)
(1.63181 0.213889 0)
(1.7269 0.191895 0)
(1.82789 0.153822 0)
(1.93218 0.098929 0)
(2.03361 0.0306059 0)
(2.12131 -0.0431221 0)
(2.18924 -0.115928 0)
(2.23534 -0.184523 0)
(2.26025 -0.248494 0)
(2.26743 -0.306597 0)
(2.2623 -0.356929 0)
(2.24907 -0.399209 0)
(2.22379 -0.432497 0)
(2.19266 -0.457322 0)
(2.15716 -0.474515 0)
(2.1195 -0.485517 0)
(2.08155 -0.49167 0)
(2.04446 -0.494034 0)
(2.0089 -0.49348 0)
(1.97522 -0.490713 0)
(1.94354 -0.486289 0)
(1.91384 -0.48065 0)
(1.88603 -0.474137 0)
(1.85995 -0.467023 0)
(1.83545 -0.459522 0)
(1.81236 -0.451803 0)
(1.79052 -0.444 0)
(1.76977 -0.436214 0)
(1.74995 -0.428519 0)
(1.73092 -0.420967 0)
(1.71254 -0.413593 0)
(1.69468 -0.406418 0)
(1.6772 -0.399451 0)
(1.66001 -0.392684 0)
(1.64298 -0.386098 0)
(1.626 -0.379669 0)
(1.60897 -0.373386 0)
(1.5918 -0.367226 0)
(1.57437 -0.361152 0)
(1.5566 -0.355113 0)
(1.53841 -0.349059 0)
(1.5197 -0.342941 0)
(1.50038 -0.336718 0)
(1.48036 -0.330321 0)
(1.45965 -0.323601 0)
(1.43833 -0.316306 0)
(1.41648 -0.308198 0)
(1.39391 -0.299352 0)
(1.36993 -0.290454 0)
(1.34332 -0.282766 0)
(1.31297 -0.27746 0)
(1.2788 -0.274396 0)
(1.24282 -0.271188 0)
(1.20901 -0.263869 0)
(1.18052 -0.248423 0)
(1.16087 -0.222056 0)
(1.15205 -0.184271 0)
(1.15248 -0.136833 0)
(1.16282 -0.0821243 0)
(1.18007 -0.0235378 0)
(1.20148 0.0348041 0)
(1.22547 0.0901519 0)
(1.251 0.141282 0)
(1.2773 0.187419 0)
(1.30378 0.228184 0)
(1.32995 0.263512 0)
(1.35543 0.29356 0)
(1.37994 0.318658 0)
(1.40328 0.339252 0)
(1.42535 0.355865 0)
(1.44607 0.369055 0)
(1.46547 0.379389 0)
(1.48359 0.387418 0)
(1.50053 0.393661 0)
(1.5164 0.398592 0)
(1.53135 0.402642 0)
(1.54551 0.406208 0)
(1.559 0.409674 0)
(1.57195 0.413427 0)
(1.58447 0.41786 0)
(1.59662 0.423333 0)
(1.60853 0.430205 0)
(1.62032 0.438792 0)
(1.63212 0.449303 0)
(1.64413 0.461742 0)
(1.65657 0.47581 0)
(1.66963 0.490825 0)
(1.68331 0.50567 0)
(1.69749 0.519207 0)
(1.71209 0.530537 0)
(1.72704 0.538752 0)
(1.74251 0.542713 0)
(1.75837 0.540931 0)
(1.77435 0.531966 0)
(1.79016 0.514644 0)
(1.80536 0.488241 0)
(1.81964 0.452488 0)
(1.83273 0.407526 0)
(1.84439 0.353879 0)
(1.85441 0.29242 0)
(1.75555 -0.0546144 0)
(1.76224 -0.0406806 0)
(1.768 -0.0276141 0)
(1.77399 -0.015054 0)
(1.78111 -0.00375593 0)
(1.78833 0.00506551 0)
(1.79381 0.0106723 0)
(1.79704 0.0121724 0)
(1.79763 0.0121189 0)
(1.79608 0.00989632 0)
(1.79152 0.00583462 0)
(1.78391 0.00185582 0)
(1.77371 -0.000479464 0)
(1.76161 6.55415e-05 0)
(1.74858 0.00410381 0)
(1.73594 0.0123144 0)
(1.72535 0.0248386 0)
(1.71831 0.0416251 0)
(1.71585 0.061397 0)
(1.71857 0.0825681 0)
(1.72711 0.103649 0)
(1.74228 0.123078 0)
(1.76494 0.139226 0)
(1.79597 0.150619 0)
(1.83592 0.156034 0)
(1.88472 0.154569 0)
(1.9415 0.145622 0)
(2.0044 0.128353 0)
(2.07089 0.10116 0)
(2.13688 0.0631307 0)
(2.19539 0.0159743 0)
(2.24207 -0.0367921 0)
(2.27534 -0.0925267 0)
(2.29502 -0.147462 0)
(2.30325 -0.199593 0)
(2.30377 -0.249226 0)
(2.29664 -0.295957 0)
(2.27809 -0.33716 0)
(2.25288 -0.370901 0)
(2.22201 -0.397211 0)
(2.18759 -0.417399 0)
(2.15142 -0.432513 0)
(2.11485 -0.443251 0)
(2.07887 -0.450285 0)
(2.04406 -0.454232 0)
(2.01073 -0.455631 0)
(1.97904 -0.454957 0)
(1.94902 -0.452624 0)
(1.92065 -0.448987 0)
(1.89384 -0.444346 0)
(1.86849 -0.43895 0)
(1.84449 -0.433007 0)
(1.82171 -0.426684 0)
(1.80003 -0.420117 0)
(1.77932 -0.41341 0)
(1.75947 -0.406643 0)
(1.74035 -0.399875 0)
(1.72185 -0.393145 0)
(1.70384 -0.386478 0)
(1.68623 -0.379885 0)
(1.6689 -0.373369 0)
(1.65176 -0.366916 0)
(1.63468 -0.360508 0)
(1.61759 -0.354133 0)
(1.6004 -0.347774 0)
(1.58299 -0.341397 0)
(1.56529 -0.334963 0)
(1.54723 -0.328425 0)
(1.52873 -0.321732 0)
(1.50972 -0.314838 0)
(1.49012 -0.307697 0)
(1.46989 -0.30024 0)
(1.44903 -0.292319 0)
(1.42768 -0.28369 0)
(1.40594 -0.274132 0)
(1.38365 -0.263736 0)
(1.36013 -0.253201 0)
(1.33418 -0.243795 0)
(1.3047 -0.236688 0)
(1.27165 -0.231776 0)
(1.23715 -0.226844 0)
(1.20525 -0.218192 0)
(1.17907 -0.20192 0)
(1.16212 -0.175671 0)
(1.15601 -0.139525 0)
(1.15898 -0.0948918 0)
(1.17191 -0.0438987 0)
(1.19099 0.00998274 0)
(1.21375 0.0627962 0)
(1.23862 0.112408 0)
(1.26462 0.157868 0)
(1.29105 0.198604 0)
(1.31739 0.234394 0)
(1.34321 0.26528 0)
(1.36823 0.291489 0)
(1.39223 0.313376 0)
(1.41508 0.331386 0)
(1.43671 0.346008 0)
(1.45712 0.357749 0)
(1.47634 0.367111 0)
(1.49446 0.374574 0)
(1.51157 0.38059 0)
(1.5278 0.385579 0)
(1.54328 0.38994 0)
(1.55811 0.394066 0)
(1.57243 0.398358 0)
(1.58634 0.403213 0)
(1.59994 0.408988 0)
(1.61335 0.416024 0)
(1.62673 0.424607 0)
(1.64025 0.434904 0)
(1.65411 0.446893 0)
(1.66854 0.460296 0)
(1.68372 0.474525 0)
(1.69968 0.488652 0)
(1.7163 0.501565 0)
(1.73352 0.512324 0)
(1.75132 0.519967 0)
(1.76976 0.523367 0)
(1.78864 0.521221 0)
(1.80772 0.512255 0)
(1.82664 0.495369 0)
(1.84499 0.469837 0)
(1.86233 0.43535 0)
(1.87831 0.392007 0)
(1.89258 0.340292 0)
(1.90482 0.281038 0)
(1.80887 -0.0650185 0)
(1.81698 -0.0503366 0)
(1.82534 -0.0367462 0)
(1.8343 -0.0241498 0)
(1.84398 -0.0131765 0)
(1.85419 -0.00455884 0)
(1.86452 0.00153161 0)
(1.87378 0.00523056 0)
(1.88178 0.00685648 0)
(1.8882 0.00683502 0)
(1.89221 0.00614844 0)
(1.89467 0.00479813 0)
(1.89451 0.00506046 0)
(1.89334 0.00690828 0)
(1.89157 0.0112533 0)
(1.89028 0.0185985 0)
(1.8907 0.0288129 0)
(1.89398 0.0412583 0)
(1.90107 0.055005 0)
(1.91272 0.0692857 0)
(1.92935 0.0833967 0)
(1.95128 0.0961334 0)
(1.97818 0.105939 0)
(2.0094 0.111481 0)
(2.04398 0.111672 0)
(2.08072 0.105557 0)
(2.11854 0.0924124 0)
(2.15718 0.0720404 0)
(2.19737 0.0449478 0)
(2.23442 0.0123003 0)
(2.26575 -0.0245448 0)
(2.29028 -0.0645307 0)
(2.30654 -0.106813 0)
(2.31136 -0.151104 0)
(2.3105 -0.19586 0)
(2.30319 -0.238651 0)
(2.28554 -0.276508 0)
(2.2622 -0.308842 0)
(2.23438 -0.336373 0)
(2.20347 -0.359309 0)
(2.171 -0.378028 0)
(2.13795 -0.392883 0)
(2.10493 -0.404175 0)
(2.07244 -0.412282 0)
(2.04079 -0.417611 0)
(2.01019 -0.42056 0)
(1.98077 -0.421506 0)
(1.95259 -0.420798 0)
(1.92566 -0.418745 0)
(1.89996 -0.415619 0)
(1.87545 -0.411649 0)
(1.85206 -0.407028 0)
(1.82972 -0.401915 0)
(1.80834 -0.39644 0)
(1.78782 -0.390706 0)
(1.76809 -0.38479 0)
(1.74903 -0.378751 0)
(1.73055 -0.372631 0)
(1.71255 -0.366457 0)
(1.69493 -0.360243 0)
(1.6776 -0.353994 0)
(1.66046 -0.347697 0)
(1.64341 -0.341338 0)
(1.62638 -0.334907 0)
(1.60927 -0.328391 0)
(1.592 -0.321761 0)
(1.57447 -0.314986 0)
(1.55663 -0.308028 0)
(1.53841 -0.300846 0)
(1.51975 -0.293392 0)
(1.5006 -0.285622 0)
(1.48092 -0.277494 0)
(1.46067 -0.268944 0)
(1.43991 -0.259831 0)
(1.41879 -0.249927 0)
(1.39745 -0.239027 0)
(1.37577 -0.227234 0)
(1.35309 -0.215247 0)
(1.32823 -0.204324 0)
(1.30012 -0.195647 0)
(1.26865 -0.189221 0)
(1.23591 -0.183112 0)
(1.20581 -0.173926 0)
(1.1815 -0.158081 0)
(1.16642 -0.133414 0)
(1.16214 -0.100044 0)
(1.16649 -0.0590167 0)
(1.18131 -0.0123284 0)
(1.20175 0.0366517 0)
(1.22553 0.0841994 0)
(1.25108 0.128543 0)
(1.27744 0.168936 0)
(1.30398 0.204953 0)
(1.33022 0.236481 0)
(1.35582 0.263634 0)
(1.38054 0.286669 0)
(1.40425 0.305941 0)
(1.42685 0.321872 0)
(1.44833 0.33491 0)
(1.4687 0.345512 0)
(1.48803 0.354122 0)
(1.5064 0.361169 0)
(1.52393 0.367059 0)
(1.54073 0.372189 0)
(1.5569 0.376956 0)
(1.57256 0.381762 0)
(1.58783 0.387004 0)
(1.60283 0.393027 0)
(1.61768 0.400144 0)
(1.63258 0.408614 0)
(1.6477 0.418574 0)
(1.66327 0.429986 0)
(1.67949 0.442596 0)
(1.69654 0.455896 0)
(1.71451 0.469105 0)
(1.73332 0.4812 0)
(1.7529 0.491184 0)
(1.77323 0.498087 0)
(1.79426 0.500844 0)
(1.81577 0.498292 0)
(1.83753 0.48928 0)
(1.85914 0.472807 0)
(1.88015 0.448183 0)
(1.9001 0.415092 0)
(1.91853 0.373604 0)
(1.935 0.324167 0)
(1.94913 0.267563 0)
(1.83514 -0.072527 0)
(1.84223 -0.0587239 0)
(1.85016 -0.0461801 0)
(1.85892 -0.0348944 0)
(1.86843 -0.0250929 0)
(1.87878 -0.0169271 0)
(1.88883 -0.0108593 0)
(1.89932 -0.00645141 0)
(1.90849 -0.00367332 0)
(1.91679 -0.00192238 0)
(1.925 -0.00086549 0)
(1.93054 4.91666e-05 0)
(1.93488 0.00154348 0)
(1.93867 0.00418931 0)
(1.94233 0.00846569 0)
(1.94656 0.0145983 0)
(1.95219 0.0224917 0)
(1.95991 0.0317935 0)
(1.97015 0.0419315 0)