/*--------------------------------*- C++ -*----------------------------------*\
| =========                 |                                                 |
| \\      /  F ield         | OpenFOAM: The Open Source CFD Toolbox           |
|  \\    /   O peration     | Version:  2206                                  |
|   \\  /    A nd           | Website:  www.openfoam.com                      |
|    \\/     M anipulation  |                                                 |
\*---------------------------------------------------------------------------*/
FoamFile
{
    version     2.0;
    format      ascii;
    arch        "LSB;label=32;scalar=64";
    class       surfaceScalarField;
    location    "18.5001";
    object      phi;
}
// * * * * * * * * * * * * * * * * * * * * * * * * * * * * * * * * * * * * * //

dimensions      [0 3 -1 0 0 0 0];

oriented        oriented;

internalField   nonuniform List<scalar> 
3590
(
5.32734e-06
5.28505e-07
-6.1881e-07
5.42519e-06
5.72071e-07
-6.69925e-07
5.52834e-06
5.93037e-07
-6.96184e-07
5.6346e-06
5.90775e-07
-6.97037e-07
5.74216e-06
5.65181e-07
-6.72737e-07
5.84954e-06
5.1677e-07
-6.24154e-07
5.95562e-06
4.4706e-07
-5.53143e-07
6.05869e-06
3.59109e-07
-4.62179e-07
6.15453e-06
2.58359e-07
-3.54199e-07
6.23692e-06
1.51803e-07
-2.34194e-07
6.29982e-06
4.62487e-08
-1.09148e-07
6.33872e-06
-5.26172e-08
1.37236e-08
6.35035e-06
-1.40439e-07
1.28804e-07
6.33182e-06
-2.1293e-07
2.3146e-07
6.28126e-06
-2.66694e-07
3.17261e-07
6.20112e-06
-3.01704e-07
3.81837e-07
6.0985e-06
-3.2142e-07
4.24046e-07
5.98349e-06
-3.31093e-07
4.46104e-07
5.86613e-06
-3.35892e-07
4.53252e-07
5.7535e-06
-3.38986e-07
4.51608e-07
5.64927e-06
-3.41195e-07
4.4543e-07
5.55513e-06
-3.41711e-07
4.35851e-07
5.47163e-06
-3.38577e-07
4.22072e-07
5.39877e-06
-3.29407e-07
4.02275e-07
5.33651e-06
-3.11917e-07
3.74172e-07
5.28531e-06
-2.84225e-07
3.35421e-07
5.24573e-06
-2.45174e-07
2.84763e-07
5.21808e-06
-1.94596e-07
2.22238e-07
5.20262e-06
-1.33183e-07
1.48651e-07
5.19943e-06
-6.28109e-08
6.59991e-08
5.20849e-06
1.34929e-08
-2.25583e-08
5.22922e-06
9.17328e-08
-1.12463e-07
5.26039e-06
1.67253e-07
-1.98422e-07
5.30066e-06
2.36263e-07
-2.76532e-07
5.34848e-06
2.95868e-07
-3.43689e-07
5.40231e-06
3.43814e-07
-3.97641e-07
5.46077e-06
3.78508e-07
-4.36968e-07
5.52263e-06
3.99036e-07
-4.60893e-07
5.58657e-06
4.05111e-07
-4.69054e-07
5.65132e-06
3.96711e-07
-4.6146e-07
5.71574e-06
3.74059e-07
-4.3848e-07
5.77869e-06
3.37895e-07
-4.00843e-07
5.8389e-06
2.89672e-07
-3.49888e-07
5.89445e-06
2.31912e-07
-2.87465e-07
5.94264e-06
1.67759e-07
-2.15945e-07
5.98055e-06
1.00633e-07
-1.38541e-07
6.00593e-06
3.34699e-08
-5.88549e-08
6.01735e-06
-3.10572e-08
1.96457e-08
6.01406e-06
-9.06943e-08
9.39833e-08
5.99583e-06
-1.43356e-07
1.61587e-07
5.96305e-06
-1.87426e-07
2.20197e-07
5.91748e-06
-2.22454e-07
2.68025e-07
5.86199e-06
-2.48893e-07
3.04387e-07
5.80006e-06
-2.67703e-07
3.29629e-07
5.73526e-06
-2.79791e-07
3.44595e-07
5.67052e-06
-2.85688e-07
3.50423e-07
5.60796e-06
-2.8555e-07
3.48113e-07
5.54909e-06
-2.79168e-07
3.3804e-07
5.49517e-06
-2.66094e-07
3.20011e-07
5.44736e-06
-2.4587e-07
2.93688e-07
5.40667e-06
-2.18182e-07
2.5887e-07
5.37398e-06
-1.82952e-07
2.15639e-07
5.3499e-06
-1.40464e-07
1.64542e-07
5.33489e-06
-9.16269e-08
1.06643e-07
5.32925e-06
-3.79579e-08
4.35922e-08
5.33305e-06
1.83321e-08
-2.21338e-08
5.34579e-06
7.42924e-08
-8.70287e-08
5.36663e-06
1.27197e-07
-1.48034e-07
5.39444e-06
1.74772e-07
-2.0259e-07
5.42795e-06
2.15123e-07
-2.4863e-07
5.46587e-06
2.46801e-07
-2.84725e-07
5.50708e-06
2.68852e-07
-3.1006e-07
5.55052e-06
2.80864e-07
-3.243e-07
5.5951e-06
2.82849e-07
-3.27427e-07
5.6398e-06
2.74995e-07
-3.19701e-07
5.68369e-06
2.57685e-07
-3.01566e-07
5.72579e-06
2.31655e-07
-2.73757e-07
5.76512e-06
1.98076e-07
-2.37405e-07
5.80042e-06
1.58603e-07
-1.93911e-07
5.83026e-06
1.15079e-07
-1.44916e-07
5.85327e-06
6.94333e-08
-9.24398e-08
5.86855e-06
2.33481e-08
-3.86316e-08
5.87555e-06
-2.14996e-08
1.44978e-08
5.87409e-06
-6.37424e-08
6.5201e-08
5.86423e-06
-1.02043e-07
1.11909e-07
5.84618e-06
-1.35216e-07
1.53259e-07
5.82053e-06
-1.62442e-07
1.88093e-07
5.78846e-06
-1.83439e-07
2.15515e-07
5.75152e-06
-1.98163e-07
2.351e-07
5.71141e-06
-2.06833e-07
2.46949e-07
5.66976e-06
-2.09729e-07
2.51378e-07
5.62809e-06
-2.07136e-07
2.48804e-07
5.58779e-06
-1.99287e-07
2.39588e-07
5.55009e-06
-1.86305e-07
2.24006e-07
5.51604e-06
-1.68309e-07
2.02358e-07
5.48653e-06
-1.45493e-07
1.75006e-07
5.46227e-06
-1.18148e-07
1.424e-07
5.44384e-06
-8.67195e-08
1.05156e-07
5.43165e-06
-5.18986e-08
6.40824e-08
5.42607e-06
-1.47581e-08
2.03425e-08
5.42715e-06
2.31743e-08
-2.42564e-08
5.43461e-06
6.02639e-08
-6.77199e-08
5.44791e-06
9.49375e-08
-1.08239e-07
5.46631e-06
1.2577e-07
-1.44176e-07
5.48897e-06
1.51536e-07
-1.74192e-07
5.51502e-06
1.71284e-07
-1.97333e-07
5.54362e-06
1.84445e-07
-2.13045e-07
5.57392e-06
1.90839e-07
-2.21138e-07
5.60512e-06
1.90482e-07
-2.21683e-07
5.63649e-06
1.83514e-07
-2.1489e-07
5.66727e-06
1.70235e-07
-2.01014e-07
5.69668e-06
1.51222e-07
-1.80633e-07
5.72391e-06
1.27409e-07
-1.54635e-07
5.74801e-06
9.9932e-08
-1.24033e-07
5.76804e-06
7.00251e-08
-9.0051e-08
5.78322e-06
3.8868e-08
-5.40501e-08
5.79311e-06
7.59645e-09
-1.74837e-08
5.79748e-06
-2.27194e-08
1.83488e-08
5.79632e-06
-5.11064e-08
5.22681e-08
5.78974e-06
-7.66586e-08
8.32291e-08
5.77795e-06
-9.85448e-08
1.1034e-07
5.76128e-06
-1.16175e-07
1.32848e-07
5.74042e-06
-1.29302e-07
1.50159e-07
-1.37826e-07
1.61958e-07
4.97355e-06
4.32156e-07
5.08011e-06
4.65512e-07
5.19482e-06
4.78335e-07
5.31585e-06
4.69743e-07
5.44136e-06
4.39671e-07
5.56868e-06
3.89446e-07
5.69305e-06
3.22694e-07
5.80735e-06
2.44804e-07
5.90369e-06
1.62021e-07
5.97564e-06
7.98598e-08
6.01899e-06
2.88966e-09
6.03168e-06
-6.53052e-08
6.01205e-06
-1.20805e-07
5.96107e-06
-1.61952e-07
5.88385e-06
-1.89477e-07
5.78899e-06
-2.06837e-07
5.68567e-06
-2.18106e-07
5.58143e-06
-2.26856e-07
5.48076e-06
-2.35215e-07
5.3856e-06
-2.43827e-07
5.29655e-06
-2.52144e-07
5.21352e-06
-2.58687e-07
5.13638e-06
-2.61438e-07
5.06528e-06
-2.58299e-07
5.00083e-06
-2.47474e-07
4.94429e-06
-2.27679e-07
4.89726e-06
-1.98153e-07
4.86137e-06
-1.58698e-07
4.83787e-06
-1.09683e-07
4.82752e-06
-5.24599e-08
4.83073e-06
1.02789e-08
4.84734e-06
7.51234e-08
4.87634e-06
1.38251e-07
4.91641e-06
1.96194e-07
4.9661e-06
2.46182e-07
5.02388e-06
2.8603e-07
5.08819e-06
3.142e-07
5.15753e-06
3.29696e-07
5.23059e-06
3.32051e-07
5.30604e-06
3.21256e-07
5.38228e-06
2.97827e-07
5.45695e-06
2.63226e-07
5.52684e-06
2.19778e-07
5.58837e-06
1.70377e-07
5.63832e-06
1.17812e-07
5.67431e-06
6.46435e-08
5.69484e-06
1.29446e-08
5.69938e-06
-3.56014e-08
5.68799e-06
-7.92993e-08
5.66135e-06
-1.16717e-07
5.62137e-06
-1.47446e-07
5.5709e-06
-1.71984e-07
5.51313e-06
-1.91123e-07
5.45101e-06
-2.0559e-07
5.38704e-06
-2.15821e-07
5.32315e-06
-2.21795e-07
5.26077e-06
-2.23172e-07
5.20111e-06
-2.195e-07
5.1453e-06
-2.10293e-07
5.09455e-06
-1.95119e-07
5.05007e-06
-1.73698e-07
5.01306e-06
-1.45939e-07
4.98461e-06
-1.12017e-07
4.96563e-06
-7.26497e-08
4.95659e-06
-2.89175e-08
4.95767e-06
1.72523e-08
4.96849e-06
6.34758e-08
4.98835e-06
1.07332e-07
5.01634e-06
1.46785e-07
5.05135e-06
1.80113e-07
5.09215e-06
2.06001e-07
5.13743e-06
2.23577e-07
5.18593e-06
2.32358e-07
5.23654e-06
2.32242e-07
5.28811e-06
2.23421e-07
5.33937e-06
2.06424e-07
5.38873e-06
1.823e-07
5.43429e-06
1.52514e-07
5.47416e-06
1.18738e-07
5.50669e-06
8.25417e-08
5.53071e-06
4.54208e-08
5.54538e-06
8.67228e-09
5.55041e-06
-2.65232e-08
5.5457e-06
-5.9041e-08
5.5314e-06
-8.77421e-08
5.50816e-06
-1.11973e-07
5.4772e-06
-1.31483e-07
5.44013e-06
-1.4637e-07
5.39877e-06
-1.56807e-07
5.35491e-06
-1.62965e-07
5.31015e-06
-1.64968e-07
5.26591e-06
-1.62902e-07
5.22341e-06
-1.56785e-07
5.18369e-06
-1.4659e-07
5.14772e-06
-1.32339e-07
5.11637e-06
-1.14142e-07
5.09043e-06
-9.22056e-08
5.07057e-06
-6.68636e-08
5.05733e-06
-3.86562e-08
5.05102e-06
-8.45167e-09
5.05168e-06
2.25209e-08
5.05909e-06
5.28484e-08
5.07291e-06
8.1122e-08
5.09255e-06
1.06125e-07
5.11727e-06
1.2682e-07
5.14616e-06
1.42396e-07
5.17829e-06
1.52315e-07
5.21278e-06
1.56347e-07
5.24877e-06
1.54494e-07
5.28534e-06
1.46942e-07
5.32143e-06
1.34147e-07
5.35575e-06
1.16895e-07
5.38697e-06
9.61919e-08
5.41385e-06
7.30483e-08
5.43544e-06
4.84405e-08
5.45102e-06
2.32851e-08
5.46019e-06
-1.5694e-09
5.46278e-06
-2.531e-08
5.45876e-06
-4.70889e-08
5.44822e-06
-6.61175e-08
5.43164e-06
-8.19686e-08
5.40986e-06
-9.43906e-08
5.38392e-06
-1.03366e-07
-1.08952e-07
4.67109e-06
3.28301e-07
4.78829e-06
3.48313e-07
4.91596e-06
3.5067e-07
5.05044e-06
3.35257e-07
5.18634e-06
3.0377e-07
5.31617e-06
2.5962e-07
5.43157e-06
2.07292e-07
5.5251e-06
1.51279e-07
5.5916e-06
9.55181e-08
5.62881e-06
4.2651e-08
5.63646e-06
-4.76245e-09
5.61551e-06
-4.43507e-08
5.56967e-06
-7.49648e-08
5.50528e-06
-9.75671e-08
5.43006e-06
-1.14257e-07
5.35053e-06
-1.27303e-07
5.27092e-06
-1.38498e-07
5.19309e-06
-1.49027e-07
5.11734e-06
-1.59461e-07
5.04322e-06
-1.69709e-07
4.97014e-06
-1.7906e-07
4.89778e-06
-1.86327e-07
4.82638e-06
-1.90041e-07
4.7568e-06
-1.88722e-07
4.69053e-06
-1.81204e-07
4.62952e-06
-1.66672e-07
4.57599e-06
-1.44617e-07
4.53227e-06
-1.14983e-07
4.5006e-06
-7.80051e-08
4.48272e-06
-3.45864e-08
4.4796e-06
1.33989e-08
4.4915e-06
6.32218e-08
4.51796e-06
1.1179e-07
4.55787e-06
1.56289e-07
4.60976e-06
1.94287e-07
4.67196e-06
2.23833e-07
4.74263e-06
2.43527e-07
4.8198e-06
2.52532e-07
4.90127e-06
2.50584e-07
4.9844e-06
2.38125e-07
5.06581e-06
2.16418e-07
5.14168e-06
1.87348e-07
5.20842e-06
1.53042e-07
5.26308e-06
1.15718e-07
5.30357e-06
7.73194e-08
5.32889e-06
3.93294e-08
5.33888e-06
2.95504e-09
5.33397e-06
-3.06986e-08
5.31507e-06
-6.04018e-08
5.28397e-06
-8.56124e-08
5.24314e-06
-1.06618e-07
5.19506e-06
-1.239e-07
5.14184e-06
-1.37908e-07
5.08521e-06
-1.48953e-07
5.02652e-06
-1.57136e-07
4.96702e-06
-1.6229e-07
4.90784e-06
-1.63998e-07
4.85011e-06
-1.61772e-07
4.79501e-06
-1.55191e-07
4.7438e-06
-1.43906e-07
4.69779e-06
-1.27692e-07
4.65838e-06
-1.06528e-07
4.627e-06
-8.06351e-08
4.60486e-06
-5.05095e-08
4.59288e-06
-1.6938e-08
4.59155e-06
1.85784e-08
4.60083e-06
5.42032e-08
4.62026e-06
8.78968e-08
4.64904e-06
1.18005e-07
4.68606e-06
1.43093e-07
4.73002e-06
1.62043e-07
4.77949e-06
1.74108e-07
4.83294e-06
1.78903e-07
4.88878e-06
1.76404e-07
4.94517e-06
1.6703e-07
4.99995e-06
1.51644e-07
5.05086e-06
1.31394e-07
5.09583e-06
1.07538e-07
5.13319e-06
8.13835e-08
5.16163e-06
5.40966e-08
5.18043e-06
2.66277e-08
5.18928e-06
-1.80603e-10
5.18817e-06
-2.54121e-08
5.17727e-06
-4.81406e-08
5.15733e-06
-6.78091e-08
5.12965e-06
-8.42885e-08
5.09582e-06
-9.76485e-08
5.05745e-06
-1.08005e-07
5.01609e-06
-1.15443e-07
4.97312e-06
-1.19998e-07
4.9298e-06
-1.21647e-07
4.88721e-06
-1.20312e-07
4.84631e-06
-1.15886e-07
4.80801e-06
-1.08287e-07
4.77317e-06
-9.74986e-08
4.74262e-06
-8.35984e-08
4.71719e-06
-6.67711e-08
4.69763e-06
-4.73067e-08
4.68462e-06
-2.5648e-08
4.67862e-06
-2.44742e-09
4.67982e-06
2.13198e-08
4.68824e-06
4.44332e-08
4.70358e-06
6.57778e-08
4.7253e-06
8.44025e-08
4.75263e-06
9.94876e-08
4.78463e-06
1.10401e-07
4.82021e-06
1.16731e-07
4.85826e-06
1.18303e-07
4.89755e-06
1.152e-07
4.93667e-06
1.07826e-07
4.974e-06
9.68101e-08
5.00804e-06
8.28597e-08
5.03749e-06
6.67448e-08
5.06131e-06
4.92295e-08
5.07878e-06
3.09675e-08
5.08953e-06
1.25364e-08
5.09341e-06
-5.44875e-09
5.09035e-06
-2.22565e-08
5.08059e-06
-3.73264e-08
5.06474e-06
-5.02669e-08
5.04374e-06
-6.09638e-08
5.01872e-06
-6.93703e-08
4.99084e-06
-7.54865e-08
-7.93225e-08
4.45509e-06
2.26098e-07
4.5684e-06
2.35005e-07
4.68711e-06
2.3196e-07
4.80399e-06
2.18377e-07
4.91139e-06
1.96371e-07
5.00272e-06
1.68281e-07
5.07343e-06
1.36585e-07
5.12127e-06
1.03438e-07
5.14624e-06
7.05526e-08
5.14978e-06
3.91109e-08
5.13466e-06
1.03525e-08
5.10452e-06
-1.42079e-08
5.06431e-06
-3.47598e-08
5.01845e-06
-5.17053e-08
4.96995e-06
-6.57495e-08
4.92027e-06
-7.76315e-08
4.8698e-06
-8.80261e-08
4.81816e-06
-9.73894e-08
4.76463e-06
-1.05924e-07
4.70849e-06
-1.13571e-07
4.64942e-06
-1.19995e-07
4.5877e-06
-1.246e-07
4.52427e-06
-1.26617e-07
4.46076e-06
-1.25205e-07
4.39913e-06
-1.19574e-07
4.34154e-06
-1.09088e-07
4.2903e-06
-9.33715e-08
4.24766e-06
-7.23452e-08
4.2159e-06
-4.62513e-08
4.19694e-06
-1.56193e-08
4.19206e-06
1.82732e-08
4.20194e-06
5.33453e-08
4.22646e-06
8.7274e-08
4.26471e-06
1.18034e-07
4.31521e-06
1.4379e-07
4.37597e-06
1.6307e-07
4.44462e-06
1.74874e-07
4.51841e-06
1.78746e-07
4.59407e-06
1.74929e-07
4.6679e-06
1.64292e-07
4.73632e-06
1.47992e-07
4.79634e-06
1.27332e-07
4.84567e-06
1.03714e-07
4.88293e-06
7.84601e-08
4.90758e-06
5.26665e-08
4.91974e-06
2.71648e-08
4.91996e-06
2.73827e-09
4.90896e-06
-1.96978e-08
4.88807e-06
-3.95088e-08
4.85911e-06
-5.66518e-08
4.82378e-06
-7.12917e-08
4.7835e-06
-8.36221e-08
4.7394e-06
-9.38103e-08
4.6924e-06
-1.01947e-07
4.64327e-06
-1.08006e-07
4.5928e-06
-1.11824e-07
4.54191e-06
-1.1311e-07
4.49164e-06
-1.11504e-07
4.44313e-06
-1.06673e-07
4.3976e-06
-9.83829e-08
4.35641e-06
-8.64991e-08
4.32092e-06
-7.10416e-08
4.2925e-06
-5.22099e-08
4.2724e-06
-3.04111e-08
4.26171e-06
-6.24515e-09
4.26102e-06
1.9264e-08
4.27062e-06
4.4602e-08
4.2902e-06
6.8322e-08
4.31897e-06
8.92347e-08
4.35578e-06
1.06284e-07
4.39917e-06
1.18656e-07
4.44744e-06
1.25831e-07
4.49871e-06
1.27636e-07
4.55078e-06
1.24337e-07
4.60128e-06
1.16526e-07
4.64801e-06
1.04914e-07
4.6891e-06
9.03089e-08
4.72306e-06
7.35705e-08
4.74894e-06
5.55109e-08
4.76622e-06
3.68112e-08
4.77481e-06
1.80384e-08
4.77481e-06
-1.79663e-10
4.76657e-06
-1.717e-08
4.75087e-06
-3.24468e-08
4.72893e-06
-4.58652e-08
4.70202e-06
-5.73792e-08
4.67134e-06
-6.69709e-08
4.63796e-06
-7.46205e-08
4.60281e-06
-8.02929e-08
4.56674e-06
-8.39306e-08
4.53054e-06
-8.54447e-08
4.49494e-06
-8.4717e-08
4.4607e-06
-8.16454e-08
4.42859e-06
-7.61747e-08
4.3994e-06
-6.83106e-08
4.37394e-06
-5.81369e-08
4.35299e-06
-4.58227e-08
4.3373e-06
-3.16161e-08
4.32752e-06
-1.58616e-08
4.32414e-06
9.28912e-10
4.3275e-06
1.7961e-08
4.33763e-06
3.43e-08
4.3542e-06
4.92099e-08
4.37658e-06
6.20206e-08
4.40391e-06
7.21581e-08
4.43512e-06
7.91977e-08
4.46895e-06
8.2897e-08
4.50399e-06
8.32588e-08
4.53867e-06
8.05287e-08
4.57144e-06
7.50545e-08
4.60101e-06
6.7239e-08
4.62631e-06
5.75632e-08
4.64653e-06
4.65226e-08
4.66119e-06
3.45708e-08
4.67005e-06
2.21018e-08
4.67308e-06
9.50766e-09
4.67035e-06
-2.71833e-09
4.66218e-06
-1.40909e-08
4.6492e-06
-2.43392e-08
4.63224e-06
-3.33092e-08
4.61217e-06
-4.0899e-08
4.58983e-06
-4.70267e-08
4.56598e-06
-5.16311e-08
-5.46713e-08
4.17308e-06
1.52529e-07
4.24971e-06
1.58367e-07
4.32419e-06
1.57487e-07
4.39208e-06
1.5048e-07
4.45022e-06
1.38239e-07
4.49664e-06
1.21854e-07
4.5307e-06
1.02525e-07
4.55272e-06
8.14216e-08
4.56361e-06
5.96566e-08
4.5645e-06
3.82243e-08
4.55657e-06
1.8287e-08
4.54204e-06
3.22558e-10
4.52224e-06
-1.49622e-08
4.49836e-06
-2.78315e-08
4.47112e-06
-3.85033e-08
4.44086e-06
-4.737e-08
4.40768e-06
-5.48529e-08
4.37157e-06
-6.12764e-08
4.33247e-06
-6.68258e-08
4.29043e-06
-7.15297e-08
4.24568e-06
-7.52442e-08
4.19874e-06
-7.76633e-08
4.15048e-06
-7.83533e-08
4.10208e-06
-7.68065e-08
4.055e-06
-7.24924e-08
4.01086e-06
-6.49535e-08
3.97142e-06
-5.39278e-08
3.93847e-06
-3.93975e-08
3.91394e-06
-2.17218e-08
3.8993e-06
-9.72613e-10
3.8961e-06
2.14738e-08
3.90508e-06
4.43611e-08
3.92609e-06
6.62616e-08
3.95817e-06
8.5953e-08
3.99969e-06
1.02278e-07
4.04843e-06
1.14323e-07
4.10179e-06
1.2152e-07
4.1568e-06
1.23733e-07
4.21052e-06
1.21207e-07
4.2604e-06
1.14417e-07
4.30438e-06
1.04005e-07
4.34098e-06
9.07332e-08
4.36929e-06
7.54112e-08
4.38893e-06
5.88184e-08
4.39995e-06
4.16456e-08
4.40264e-06
2.44732e-08
4.39755e-06
7.82907e-09
4.38543e-06
-7.5801e-09
4.36752e-06
-2.15933e-08
4.34492e-06
-3.40581e-08
4.31857e-06
-4.49424e-08
4.2892e-06
-5.4251e-08
4.25739e-06
-6.19936e-08
4.22359e-06
-6.81547e-08
4.18826e-06
-7.26703e-08
4.15185e-06
-7.54179e-08
4.11496e-06
-7.6223e-08
4.07834e-06
-7.48752e-08
4.04284e-06
-7.11822e-08
4.00948e-06
-6.50142e-08
3.9793e-06
-5.63239e-08
3.95343e-06
-4.51726e-08
3.93297e-06
-3.17499e-08
3.91897e-06
-1.64124e-08
3.91236e-06
3.7091e-10
3.9138e-06
1.78169e-08
3.92352e-06
3.48881e-08
3.94111e-06
5.07308e-08
3.96574e-06
6.45999e-08
3.9962e-06
7.583e-08
4.03093e-06
8.39269e-08
4.06814e-06
8.86138e-08
4.10592e-06
8.98648e-08
4.14239e-06
8.78653e-08
4.17599e-06
8.29285e-08
4.20543e-06
7.54662e-08
4.22979e-06
6.59516e-08
4.24847e-06
5.48891e-08
4.26121e-06
4.27708e-08
4.26799e-06
3.00378e-08
4.26894e-06
1.70803e-08
4.26442e-06
4.34165e-09
4.25495e-06
-7.69422e-09
4.2413e-06
-1.87991e-08
4.22423e-06
-2.87995e-08
4.20441e-06
-3.75598e-08
4.18242e-06
-4.49786e-08
4.15878e-06
-5.09764e-08
4.13397e-06
-5.54832e-08
4.10847e-06
-5.84337e-08
4.08278e-06
-5.97569e-08
4.05744e-06
-5.93714e-08
4.03301e-06
-5.72202e-08
4.01013e-06
-5.32895e-08
3.98943e-06
-4.76101e-08
3.97156e-06
-4.0269e-08
3.95715e-06
-3.14118e-08
3.94678e-06
-2.12437e-08
3.94097e-06
-1.00525e-08
3.94013e-06
1.762e-09
3.94449e-06
1.36067e-08
3.9539e-06
2.48877e-08
3.96795e-06
3.51577e-08
3.98598e-06
4.39884e-08
4.00713e-06
5.1017e-08
4.03034e-06
5.59868e-08
4.05446e-06
5.87744e-08
4.07834e-06
5.93803e-08
4.10095e-06
5.79158e-08
4.12144e-06
5.45658e-08
4.13911e-06
4.95715e-08
4.15345e-06
4.32194e-08
4.16416e-06
3.58146e-08
4.17107e-06
2.76625e-08
4.17413e-06
1.90386e-08
4.17341e-06
1.0225e-08
4.16911e-06
1.5877e-09
4.16159e-06
-6.57918e-09
4.15135e-06
-1.40969e-08
4.13885e-06
-2.08105e-08
4.12455e-06
-2.65948e-08
4.10888e-06
-3.13545e-08
4.09226e-06
-3.50189e-08
-3.75396e-08
3.59181e-06
1.11225e-07
3.63406e-06
1.16115e-07
3.67488e-06
1.16669e-07
3.71233e-06
1.13029e-07
3.74491e-06
1.05661e-07
3.77153e-06
9.52389e-08
3.79156e-06
8.24954e-08
3.80479e-06
6.81917e-08
3.81134e-06
5.31024e-08
3.81161e-06
3.79516e-08
3.80646e-06
2.34416e-08
3.79671e-06
1.00731e-08
3.78342e-06
-1.67598e-09
3.76754e-06
-1.19476e-08
3.74975e-06
-2.07147e-08
3.73046e-06
-2.80805e-08
3.70985e-06
-3.42411e-08
3.68795e-06
-3.93776e-08
3.66474e-06
-4.3616e-08
3.64021e-06
-4.69972e-08
3.61442e-06
-4.94546e-08
3.58757e-06
-5.08205e-08
3.56007e-06
-5.0849e-08
3.53251e-06
-4.92443e-08
3.5057e-06
-4.56891e-08
3.48066e-06
-3.99077e-08
3.45849e-06
-3.17606e-08
3.44035e-06
-2.1259e-08
3.42729e-06
-8.65683e-09
3.42067e-06
5.64477e-09
3.42119e-06
2.09496e-08
3.42914e-06
3.64197e-08
3.44415e-06
5.12483e-08
3.46545e-06
6.4654e-08
3.49182e-06
7.59084e-08
3.5217e-06
8.44356e-08
3.55336e-06
8.98679e-08
3.58505e-06
9.2039e-08
3.61528e-06
9.09805e-08
3.64279e-06
8.69058e-08
3.66663e-06
8.01675e-08
3.68614e-06
7.12204e-08
3.70097e-06
6.05812e-08
3.711e-06
4.87842e-08
3.71631e-06
3.63388e-08
3.71709e-06
2.36959e-08
3.71363e-06
1.12809e-08
3.70651e-06
-4.58994e-10
3.6962e-06
-1.12792e-08
3.68313e-06
-2.09884e-08
3.66769e-06
-2.94975e-08
3.65019e-06
-3.6759e-08
3.63094e-06
-4.27431e-08
3.61021e-06
-4.74191e-08
3.58828e-06
-5.07397e-08
3.56549e-06
-5.26323e-08
3.54227e-06
-5.30024e-08
3.51914e-06
-5.17482e-08
3.49673e-06
-4.8773e-08
3.47573e-06
-4.40136e-08
3.45688e-06
-3.74741e-08
3.44094e-06
-2.92304e-08
3.42863e-06
-1.94395e-08
3.4206e-06
-8.37917e-09
3.41748e-06
3.49037e-09
3.41958e-06
1.5712e-08
3.42685e-06
2.76231e-08
3.43887e-06
3.87107e-08
3.45498e-06
4.84857e-08
3.4743e-06
5.65109e-08
3.49577e-06
6.2455e-08
3.51826e-06
6.61234e-08
3.54069e-06
6.74378e-08
3.56211e-06
6.64433e-08
3.58174e-06
6.33053e-08
3.59893e-06
5.82707e-08
3.61324e-06
5.16438e-08
3.62436e-06
4.37679e-08
3.63213e-06
3.49987e-08
3.6365e-06
2.56749e-08
3.63747e-06
1.61033e-08
3.63521e-06
6.5998e-09
3.63001e-06
-2.48871e-09
3.62216e-06
-1.0952e-08
3.61198e-06
-1.86124e-08
3.59977e-06
-2.53511e-08
3.58586e-06
-3.10753e-08
3.5706e-06
-3.57104e-08
3.55431e-06
-3.91954e-08
3.53736e-06
-4.14793e-08
3.52011e-06
-4.25151e-08
3.503e-06
-4.22554e-08
3.48645e-06
-4.06723e-08
3.47093e-06
-3.77713e-08
3.45691e-06
-3.35917e-08
3.44485e-06
-2.82103e-08
3.43519e-06
-2.1744e-08
3.4283e-06
-1.4355e-08
3.42451e-06
-6.26503e-09
3.42406e-06
2.21467e-09
3.42698e-06
1.06882e-08
3.43309e-06
1.87787e-08
3.44205e-06
2.61891e-08
3.45342e-06
3.26266e-08
3.46659e-06
3.784e-08
3.48093e-06
4.16471e-08
3.49576e-06
4.39436e-08
3.51045e-06
4.46897e-08
3.52444e-06
4.39252e-08
3.53725e-06
4.17643e-08
3.54845e-06
3.83659e-08
3.55775e-06
3.39237e-08
3.56491e-06
2.86551e-08
3.56978e-06
2.27843e-08
3.5723e-06
1.65245e-08
3.57243e-06
1.00936e-08
3.5703e-06
3.71568e-09
3.5661e-06
-2.37851e-09
3.56004e-06
-8.03218e-09
3.55234e-06
-1.31184e-08
3.54329e-06
-1.75358e-08
3.53314e-06
-2.12041e-08
3.52218e-06
-2.40618e-08
-2.60659e-08
2.68211e-06
8.36217e-08
2.71032e-06
8.79006e-08
2.73789e-06
8.91058e-08
2.76368e-06
8.72375e-08
2.78678e-06
8.25617e-08
2.80654e-06
7.5477e-08
2.82259e-06
6.6447e-08
2.83477e-06
5.6006e-08
2.84314e-06
4.47313e-08
2.84789e-06
3.32079e-08
2.84933e-06
2.19999e-08
2.84785e-06
1.15543e-08
2.84396e-06
2.21125e-09
2.83793e-06
-5.92233e-09
2.8301e-06
-1.28779e-08
2.8207e-06
-1.86848e-08
2.80996e-06
-2.34993e-08
2.79804e-06
-2.7459e-08
2.78509e-06
-3.06595e-08
2.77122e-06
-3.31367e-08
2.75662e-06
-3.48511e-08
2.74149e-06
-3.56928e-08
2.72614e-06
-3.54923e-08
2.71095e-06
-3.40571e-08
2.69645e-06
-3.11854e-08
2.68325e-06
-2.67129e-08
2.67205e-06
-2.05607e-08
2.66355e-06
-1.27546e-08
2.65838e-06
-3.49097e-09
2.65729e-06
6.7336e-09
2.6605e-06
1.77367e-08
2.66805e-06
2.88758e-08
2.67972e-06
3.95803e-08
2.69508e-06
4.92933e-08
2.71348e-06
5.75087e-08
2.7341e-06
6.38155e-08
2.75603e-06
6.79314e-08
2.77837e-06
6.9705e-08
2.80023e-06
6.91176e-08
2.82084e-06
6.62947e-08
2.83953e-06
6.14779e-08
2.85576e-06
5.4987e-08
2.86915e-06
4.71929e-08
2.87945e-06
3.84875e-08
2.88653e-06
2.92545e-08
2.89039e-06
1.98443e-08
2.8911e-06
1.05693e-08
2.88888e-06
1.75671e-09
2.88398e-06
-6.38176e-09
2.87671e-06
-1.37143e-08
2.86736e-06
-2.01433e-08
2.85622e-06
-2.56217e-08
2.84359e-06
-3.01116e-08
2.82975e-06
-3.35807e-08
2.815e-06
-3.59908e-08
2.79966e-06
-3.72931e-08
2.78409e-06
-3.74335e-08
2.7687e-06
-3.63605e-08
2.75395e-06
-3.4024e-08
2.74034e-06
-3.03951e-08
2.72836e-06
-2.54981e-08
2.71853e-06
-1.94055e-08
2.71133e-06
-1.22298e-08
2.70707e-06
-4.12322e-09
2.70635e-06
4.20786e-09
2.70911e-06
1.2951e-08
2.71526e-06
2.14746e-08
2.72455e-06
2.94201e-08
2.7366e-06
3.64354e-08
2.7509e-06
4.22162e-08
2.76682e-06
4.65275e-08
2.78373e-06
4.92195e-08
2.80094e-06
5.02262e-08
2.81782e-06
4.95676e-08
2.83377e-06
4.73507e-08
2.84829e-06
4.37471e-08
2.86097e-06
3.89727e-08
2.87146e-06
3.3272e-08
2.87956e-06
2.69016e-08
2.88512e-06
2.01113e-08
2.88809e-06
1.31334e-08
2.88851e-06
6.18049e-09
2.88644e-06
-4.21632e-10
2.88213e-06
-6.64264e-09
2.8758e-06
-1.22734e-08
2.86768e-06
-1.72386e-08
2.85807e-06
-2.14645e-08
2.84725e-06
-2.48903e-08
2.83552e-06
-2.74661e-08
2.82319e-06
-2.91509e-08
2.81059e-06
-2.99121e-08
2.79806e-06
-2.9722e-08
2.78595e-06
-2.85672e-08
2.77464e-06
-2.64541e-08
2.76446e-06
-2.34163e-08
2.75577e-06
-1.9523e-08
2.74889e-06
-1.48635e-08
2.7441e-06
-9.55832e-09
2.74158e-06
-3.75423e-09
2.74154e-06
2.26098e-09
2.74393e-06
8.29714e-09
2.74863e-06
1.40824e-08
2.75542e-06
1.9398e-08
2.76401e-06
2.40326e-08
2.77404e-06
2.78075e-08
2.7851e-06
3.05906e-08
2.79674e-06
3.23025e-08
2.80852e-06
3.29122e-08
2.82e-06
3.24413e-08
2.83081e-06
3.0962e-08
2.84059e-06
2.85846e-08
2.84907e-06
2.54448e-08
2.85603e-06
2.16954e-08
2.86131e-06
1.74987e-08
2.86482e-06
1.30169e-08
2.86651e-06
8.40505e-09
2.86641e-06
3.80822e-09
2.86464e-06
-6.00691e-10
2.86132e-06
-4.71315e-09
2.85662e-06
-8.42034e-09
2.85074e-06
-1.16531e-08
2.84388e-06
-1.43503e-08
2.83628e-06
-1.64633e-08
-1.79574e-08
1.65022e-06
5.58786e-08
1.67926e-06
5.88622e-08
1.70857e-06
5.97885e-08
1.73716e-06
5.86464e-08
1.76413e-06
5.55958e-08
1.78871e-06
5.08999e-08
1.81027e-06
4.48875e-08
1.82835e-06
3.79224e-08
1.84269e-06
3.03912e-08
1.85322e-06
2.26827e-08
1.86006e-06
1.51534e-08
1.86355e-06
8.06934e-09
1.86407e-06
1.68785e-09
1.86195e-06
-3.79943e-09
1.85778e-06
-8.70582e-09
1.85194e-06
-1.28467e-08
1.84475e-06
-1.63126e-08
1.83647e-06
-1.91769e-08
1.8273e-06
-2.14862e-08
1.81741e-06
-2.32497e-08
1.80699e-06
-2.44342e-08
1.79627e-06
-2.49742e-08
1.78555e-06
-2.47686e-08
1.77518e-06
-2.36882e-08
1.76561e-06
-2.16113e-08
1.75734e-06
-1.84497e-08
1.75096e-06
-1.41735e-08
1.74701e-06
-8.80522e-09
1.74599e-06
-2.46944e-09
1.7484e-06
4.31463e-09
1.75449e-06
1.16542e-08
1.76426e-06
1.90989e-08
1.7776e-06
2.62414e-08
1.79419e-06
3.27081e-08
1.81353e-06
3.81704e-08
1.83498e-06
4.2365e-08
1.8578e-06
4.51104e-08
1.88119e-06
4.63104e-08
1.90435e-06
4.59564e-08
1.92652e-06
4.41264e-08
1.94703e-06
4.09737e-08
1.9653e-06
3.67098e-08
1.98092e-06
3.15792e-08
1.99357e-06
2.58346e-08
2.0031e-06
1.97253e-08
2.00946e-06
1.34803e-08
2.01273e-06
7.30244e-09
2.01309e-06
1.39464e-09
2.01074e-06
-4.02814e-09
2.006e-06
-8.97316e-09
1.99919e-06
-1.3335e-08
1.99064e-06
-1.70684e-08
1.98066e-06
-2.01349e-08
1.96958e-06
-2.25039e-08
1.95774e-06
-2.41459e-08
1.94547e-06
-2.50246e-08
1.93314e-06
-2.51072e-08
1.92115e-06
-2.43641e-08
1.90989e-06
-2.27687e-08
1.89981e-06
-2.03148e-08
1.89134e-06
-1.70255e-08
1.88489e-06
-1.29559e-08
1.88084e-06
-8.18284e-09
1.87951e-06
-2.79505e-09
1.8811e-06
2.61622e-09
1.88573e-06
8.3248e-09
1.89329e-06
1.39177e-08
1.90358e-06
1.91313e-08
1.91628e-06
2.37328e-08
1.93097e-06
2.75275e-08
1.94713e-06
3.03673e-08
1.96419e-06
3.21572e-08
1.98156e-06
3.28567e-08
1.99865e-06
3.24768e-08
2.01492e-06
3.10808e-08
2.02989e-06
2.87774e-08
2.04316e-06
2.57059e-08
2.05441e-06
2.20209e-08
2.06343e-06
1.78845e-08
2.07008e-06
1.34547e-08
2.07432e-06
8.89182e-09
2.07619e-06
4.31634e-09
2.07574e-06
2.22966e-11
2.07317e-06
-4.06881e-09
2.06869e-06
-7.78933e-09
2.06253e-06
-1.10826e-08
2.05496e-06
-1.38965e-08
2.04626e-06
-1.61876e-08
2.03671e-06
-1.79186e-08
2.02662e-06
-1.9059e-08
2.01629e-06
-1.95846e-08
2.00605e-06
-1.94803e-08
1.99622e-06
-1.87365e-08
1.98713e-06
-1.73635e-08
1.9791e-06
-1.53844e-08
1.97242e-06
-1.28439e-08
1.96736e-06
-9.80622e-09
1.96416e-06
-6.35316e-09
1.96297e-06
-2.57319e-09
1.96392e-06
1.31046e-09
1.96703e-06
5.19641e-09
1.97216e-06
8.94919e-09
1.97915e-06
1.24045e-08
1.98776e-06
1.54225e-08
1.99768e-06
1.78888e-08
2.00855e-06
1.97172e-08
2.02e-06
2.08547e-08
2.03163e-06
2.12832e-08
2.04306e-06
2.10153e-08
2.05392e-06
2.00953e-08
2.06392e-06
1.85913e-08
2.07277e-06
1.65881e-08
2.08029e-06
1.41829e-08
2.0863e-06
1.14807e-08
2.09073e-06
8.58793e-09
2.09353e-06
5.60634e-09
2.09472e-06
2.62209e-09
2.09433e-06
-2.16768e-10
2.09251e-06
-2.88904e-09
2.08939e-06
-5.30366e-09
2.08516e-06
-7.41676e-09
2.07999e-06
-9.18636e-09
2.07411e-06
-1.05777e-08
-1.15661e-08
7.73783e-07
2.57481e-08
8.05261e-07
2.73848e-08
8.3703e-07
2.80194e-08
8.68036e-07
2.76405e-08
8.97322e-07
2.63097e-08
9.24071e-07
2.41503e-08
9.47644e-07
2.13146e-08
9.67585e-07
1.79817e-08
9.83627e-07
1.43491e-08
9.95714e-07
1.05958e-08
1.00399e-06
6.88057e-09
1.00875e-06
3.30529e-09
1.01024e-06
1.95174e-10
1.00898e-06
-2.53737e-09
1.00531e-06
-5.03725e-09
9.99654e-07
-7.18759e-09
9.92364e-07
-9.02344e-09
9.8377e-07
-1.05825e-08
9.74167e-07
-1.18836e-08
9.63839e-07
-1.29214e-08
9.53072e-07
-1.36672e-08
9.42175e-07
-1.40774e-08
9.31508e-07
-1.41012e-08
9.21493e-07
-1.36731e-08
9.12605e-07
-1.27241e-08
9.05356e-07
-1.12007e-08
9.0026e-07
-9.07676e-09
8.9781e-07
-6.35542e-09
8.9839e-07
-3.04967e-09
9.02485e-07
2.20164e-10
9.10384e-07
3.75499e-09
9.21973e-07
7.50939e-09
9.37087e-07
1.11276e-08
9.55377e-07
1.44183e-08
9.76322e-07
1.72256e-08
9.99263e-07
1.94241e-08
1.02345e-06
2.09237e-08
1.04808e-06
2.16761e-08
1.07237e-06
2.16714e-08
1.09556e-06
2.09374e-08
1.11699e-06
1.95449e-08
1.1361e-06
1.75966e-08
1.15247e-06
1.52067e-08
1.16581e-06
1.24949e-08
1.17596e-06
9.57591e-09
1.18289e-06
6.55437e-09
1.18667e-06
3.51803e-09
1.18749e-06
5.76122e-10
1.18539e-06
-1.92404e-09
1.18083e-06
-4.41616e-09
1.17414e-06
-6.64439e-09
1.16565e-06
-8.58054e-09
1.15572e-06
-1.02009e-08
1.1447e-06
-1.14858e-08
1.13297e-06
-1.24188e-08
1.12094e-06
-1.29884e-08
1.10901e-06
-1.31776e-08
1.0976e-06
-1.29566e-08
1.08713e-06
-1.22998e-08
1.07801e-06
-1.11959e-08
1.07063e-06
-9.64965e-09
1.06536e-06
-7.68382e-09
1.06251e-06
-5.33314e-09
1.06234e-06
-2.62207e-09
1.06497e-06
-1.65004e-11
1.07061e-06
2.68877e-09
1.07904e-06
5.48337e-09
1.09007e-06
8.10778e-09
1.10336e-06
1.04411e-08
1.1185e-06
1.23909e-08
1.13498e-06
1.38861e-08
1.15225e-06
1.48799e-08
1.16976e-06
1.53514e-08
1.18694e-06
1.52991e-08
1.20327e-06
1.47466e-08
1.2183e-06
1.37474e-08
1.23164e-06
1.23665e-08
1.24299e-06
1.06739e-08
1.25213e-06
8.74318e-09
1.25893e-06
6.64891e-09
1.26337e-06
4.46012e-09
1.26546e-06
2.2208e-09
1.26531e-06
1.74952e-10
1.26299e-06
-1.75332e-09
1.25882e-06
-3.61223e-09
1.25301e-06
-5.27692e-09
1.24583e-06
-6.7174e-09
1.23756e-06
-7.91355e-09
1.22848e-06
-8.84409e-09
1.21892e-06
-9.49121e-09
1.20917e-06
-9.84234e-09
1.19958e-06
-9.88572e-09
1.19046e-06
-9.6161e-09
1.18213e-06
-9.03484e-09
1.17489e-06
-8.14749e-09
1.16902e-06
-6.97027e-09
1.16474e-06
-5.52945e-09
1.16225e-06
-3.85974e-09
1.16166e-06
-1.98445e-09
1.16312e-06
-1.50593e-10
1.16665e-06
1.66814e-09
1.17207e-06
3.52676e-09
1.17923e-06
5.24952e-09
1.18789e-06
6.76448e-09
1.19775e-06
8.01909e-09
1.2085e-06
8.97325e-09
1.21975e-06
9.59863e-09
1.23115e-06
9.88306e-09
1.24234e-06
9.82899e-09
1.25298e-06
9.45696e-09
1.26277e-06
8.80111e-09
1.27146e-06
7.89857e-09
1.27885e-06
6.79183e-09
1.2848e-06
5.52863e-09
1.28923e-06
4.1605e-09
1.2921e-06
2.73247e-09
1.29345e-06
1.2723e-09
1.29328e-06
-4.59059e-11
1.29172e-06
-1.3269e-09
1.28894e-06
-2.52348e-09
1.2851e-06
-3.58088e-09
1.2804e-06
-4.47736e-09
1.27501e-06
-5.19548e-09
-5.72253e-09
1.4336e-07
1.70745e-07
1.98764e-07
2.26405e-07
2.52714e-07
2.76865e-07
2.98179e-07
3.16161e-07
3.3051e-07
3.41106e-07
3.47987e-07
3.51292e-07
3.51487e-07
3.4895e-07
3.43912e-07
3.36725e-07
3.27701e-07
3.17119e-07
3.05235e-07
2.92314e-07
2.78647e-07
2.64569e-07
2.50468e-07
2.36795e-07
2.24071e-07
2.1287e-07
2.03793e-07
1.97438e-07
1.94388e-07
1.94608e-07
1.98363e-07
2.05873e-07
2.17e-07
2.31419e-07
2.48644e-07
2.68068e-07
2.88992e-07
3.10668e-07
3.3234e-07
3.53277e-07
3.72822e-07
3.90418e-07
4.05625e-07
4.1812e-07
4.27696e-07
4.3425e-07
4.37768e-07