/*--------------------------------*- C++ -*----------------------------------*\
| =========                 |                                                 |
| \\      /  F ield         | OpenFOAM: The Open Source CFD Toolbox           |
|  \\    /   O peration     | Version:  2206                                  |
|   \\  /    A nd           | Website:  www.openfoam.com                      |
|    \\/     M anipulation  |                                                 |
\*---------------------------------------------------------------------------*/
FoamFile
{
    version     2.0;
    format      ascii;
    arch        "LSB;label=32;scalar=64";
    class       surfaceScalarField;
    location    "18.5001";
    object      phi_0;
}
// * * * * * * * * * * * * * * * * * * * * * * * * * * * * * * * * * * * * * //

dimensions      [0 3 -1 0 0 0 0];

oriented        oriented;

internalField   nonuniform List<scalar> 
3590
(
5.37883e-06
5.58763e-07
-6.54326e-07
5.48076e-06
5.90131e-07
-6.92061e-07
5.58679e-06
5.98315e-07
-7.04352e-07
5.6949e-06
5.82988e-07
-6.91093e-07
5.80343e-06
5.44344e-07
-6.52872e-07
5.91113e-06
4.83437e-07
-5.91144e-07
6.01682e-06
4.02493e-07
-5.08181e-07
6.11753e-06
3.06014e-07
-4.06721e-07
6.20772e-06
2.00309e-07
-2.90498e-07
6.28083e-06
9.27663e-08
-1.6588e-07
6.33163e-06
-1.043e-08
-4.03689e-08
6.35631e-06
-1.04273e-07
7.95908e-08
6.35194e-06
-1.84622e-07
1.88996e-07
6.31558e-06
-2.47094e-07
2.83449e-07
6.24756e-06
-2.90225e-07
3.58246e-07
6.15292e-06
-3.15901e-07
4.10539e-07
6.04095e-06
-3.28939e-07
4.40915e-07
5.92228e-06
-3.34972e-07
4.5364e-07
5.80573e-06
-3.38293e-07
4.54847e-07
5.69641e-06
-3.40745e-07
4.50059e-07
5.59679e-06
-3.42226e-07
4.41847e-07
5.50784e-06
-3.4118e-07
4.30128e-07
5.4297e-06
-3.35276e-07
4.13417e-07
5.36223e-06
-3.22084e-07
3.89556e-07
5.30561e-06
-2.99455e-07
3.56076e-07
5.26044e-06
-2.65805e-07
3.10976e-07
5.22711e-06
-2.20514e-07
2.53847e-07
5.2059e-06
-1.63835e-07
1.85036e-07
5.197e-06
-9.70797e-08
1.05988e-07
5.20043e-06
-2.27685e-08
1.93289e-08
5.21599e-06
5.55235e-08
-7.10768e-08
5.24262e-06
1.33286e-07
-1.5992e-07
5.27906e-06
2.06151e-07
-2.42593e-07
5.32384e-06
2.70851e-07
-3.15627e-07
5.37537e-06
3.24807e-07
-3.76336e-07
5.43218e-06
3.66105e-07
-4.22915e-07
5.49299e-06
3.93497e-07
-4.54307e-07
5.55652e-06
4.06428e-07
-4.69963e-07
5.62146e-06
4.04774e-07
-4.69706e-07
5.6866e-06
3.88628e-07
-4.53774e-07
5.75082e-06
3.58442e-07
-4.2266e-07
5.81294e-06
3.15314e-07
-3.7743e-07
5.87139e-06
2.61265e-07
-3.19722e-07
5.92377e-06
1.99255e-07
-2.51632e-07
5.96714e-06
1.32688e-07
-1.76054e-07
5.9988e-06
6.47632e-08
-9.64249e-08
6.01694e-06
-1.68513e-09
-1.64587e-08
6.02051e-06
-6.42174e-08
6.06454e-08
6.00905e-06
-1.20636e-07
1.32096e-07
5.98258e-06
-1.69012e-07
1.95487e-07
5.94219e-06
-2.08353e-07
2.48738e-07
5.89036e-06
-2.38731e-07
2.9056e-07
5.8304e-06
-2.60999e-07
3.2096e-07
5.76598e-06
-2.76152e-07
3.40577e-07
5.70041e-06
-2.84934e-07
3.50504e-07
5.6362e-06
-2.87666e-07
3.51874e-07
5.57509e-06
-2.84291e-07
3.45399e-07
5.51844e-06
-2.74435e-07
3.3109e-07
5.46742e-06
-2.57602e-07
3.0862e-07
5.42312e-06
-2.33385e-07
2.77681e-07
5.3865e-06
-2.01568e-07
2.38189e-07
5.35829e-06
-1.62251e-07
1.90461e-07
5.33898e-06
-1.15993e-07
1.35301e-07
5.32898e-06
-6.40954e-08
7.40973e-08
5.32849e-06
-8.41342e-09
8.90206e-09
5.33727e-06
4.84236e-08
-5.71966e-08
5.35459e-06
1.03377e-07
-1.20706e-07
5.37948e-06
1.54005e-07
-1.78893e-07
5.41069e-06
1.98209e-07
-2.29419e-07
5.44692e-06
2.3432e-07
-2.70543e-07
5.48694e-06
2.6114e-07
-3.01166e-07
5.5297e-06
2.77992e-07
-3.2075e-07
5.57411e-06
2.8473e-07
-3.29143e-07
5.61911e-06
2.81467e-07
-3.26465e-07
5.66373e-06
2.68481e-07
-3.13102e-07
5.70701e-06
2.4633e-07
-2.89611e-07
5.748e-06
2.15963e-07
-2.5695e-07
5.78557e-06
1.78849e-07
-2.16419e-07
5.81833e-06
1.36765e-07
-1.69523e-07
5.84482e-06
9.16603e-08
-1.18158e-07
5.8639e-06
4.5331e-08
-6.44071e-08
5.87486e-06
-5.28423e-10
-1.04343e-08
5.87736e-06
-4.44013e-08
4.19075e-08
5.87133e-06
-8.49209e-08
9.09462e-08
5.85694e-06
-1.20824e-07
1.35218e-07
5.83454e-06
-1.51054e-07
1.73454e-07
5.80505e-06
-1.75132e-07
2.04618e-07
5.76991e-06
-1.92891e-07
2.28028e-07
5.73079e-06
-2.04456e-07
2.43577e-07
5.68939e-06
-2.10098e-07
2.51502e-07
5.64729e-06
-2.101e-07
2.52198e-07
5.60595e-06
-2.04729e-07
2.4607e-07
5.56668e-06
-1.94153e-07
2.33422e-07
5.53062e-06
-1.78466e-07
2.14527e-07
5.49873e-06
-1.57822e-07
1.89714e-07
5.47181e-06
-1.32459e-07
1.59375e-07
5.4505e-06
-1.02742e-07
1.24048e-07
5.43529e-06
-6.92258e-08
8.44396e-08
5.42656e-06
-3.28007e-08
4.1527e-08
5.42457e-06
5.20443e-09
-3.20631e-09
5.42915e-06
4.31312e-08
-4.77122e-08
5.43989e-06
7.93627e-08
-9.01023e-08
5.45613e-06
1.12383e-07
-1.28625e-07
5.47705e-06
1.40854e-07
-1.61776e-07
5.50178e-06
1.63679e-07
-1.88408e-07
5.52947e-06
1.80089e-07
-2.07777e-07
5.55926e-06
1.8974e-07
-2.19529e-07
5.59032e-06
1.92571e-07
-2.23631e-07
5.62189e-06
1.88669e-07
-2.20239e-07
5.65322e-06
1.78245e-07
-2.09579e-07
5.68353e-06
1.61744e-07
-1.92058e-07
5.71205e-06
1.39928e-07
-1.68443e-07
5.73787e-06
1.13883e-07
-1.39709e-07
5.76004e-06
8.48004e-08
-1.06963e-07
5.77765e-06
5.39247e-08
-7.1536e-08
5.79011e-06
2.23992e-08
-3.48638e-08
5.7971e-06
-8.65763e-09
1.66876e-09
5.79851e-06
-3.82263e-08
3.68211e-08
5.7944e-06
-6.53639e-08
6.94727e-08
5.78494e-06
-8.91987e-08
9.86562e-08
5.77037e-06
-1.08979e-07
1.2355e-07
5.75122e-06
-1.24332e-07
1.43478e-07
5.72834e-06
-1.35082e-07
1.57963e-07
-1.4125e-07
1.66906e-07
5.03033e-06
4.55703e-07
5.1425e-06
4.77959e-07
5.26186e-06
4.7896e-07
5.3866e-06
4.58239e-07
5.51461e-06
4.16334e-07
5.64214e-06
3.55908e-07
5.76299e-06
2.81641e-07
5.86932e-06
1.99693e-07
5.95364e-06
1.1598e-07
6.01075e-06
3.56611e-08
6.03764e-06
-3.73181e-08
6.03254e-06
-9.91751e-08
5.99474e-06
-1.46826e-07
5.92754e-06
-1.79891e-07
5.83829e-06
-2.00974e-07
5.73647e-06
-2.14085e-07
5.6308e-06
-2.23261e-07
5.52721e-06
-2.31386e-07
5.42868e-06
-2.39766e-07
5.33632e-06
-2.48379e-07
5.2502e-06
-2.56109e-07
5.17011e-06
-2.61085e-07
5.09597e-06
-2.61142e-07
5.02816e-06
-2.54271e-07
4.9676e-06
-2.38898e-07
4.9158e-06
-2.14007e-07
4.87441e-06
-1.79124e-07
4.84494e-06
-1.34359e-07
4.82836e-06
-8.0501e-08
4.82526e-06
-1.96644e-08
4.83579e-06
4.49853e-08
4.85934e-06
1.0974e-07
4.89466e-06
1.70834e-07
4.94034e-06
2.25171e-07
4.99488e-06
2.70261e-07
5.05673e-06
3.04254e-07
5.12433e-06
3.259e-07
5.19628e-06
3.3448e-07
5.27129e-06
3.29763e-07
5.34792e-06
3.12001e-07
5.4242e-06
2.82162e-07
5.49727e-06
2.42242e-07
5.56359e-06
1.94944e-07
5.61963e-06
1.4321e-07
5.66259e-06
8.97292e-08
5.69053e-06
3.68267e-08
5.70247e-06
-1.36256e-08
5.69825e-06
-5.99976e-08
5.6782e-06
-1.00581e-07
5.64367e-06
-1.34488e-07
5.59719e-06
-1.61871e-07
5.54193e-06
-1.83471e-07
5.48103e-06
-2.00101e-07
5.41724e-06
-2.1236e-07
5.35275e-06
-2.20441e-07
5.28919e-06
-2.24113e-07
5.22785e-06
-2.22943e-07
5.16986e-06
-2.16444e-07
5.11639e-06
-2.04133e-07
5.06864e-06
-1.85639e-07
5.02785e-06
-1.60774e-07
4.99518e-06
-1.29585e-07
4.97162e-06
-9.24349e-08
4.9579e-06
-5.03675e-08
4.9543e-06
-4.81746e-09
4.96073e-06
4.19968e-08
4.9766e-06
8.75072e-08
5.00108e-06
1.2952e-07
5.03315e-06
1.66141e-07
5.07162e-06
1.95848e-07
5.1152e-06
2.17558e-07
5.1626e-06
2.306e-07
5.21262e-06
2.34705e-07
5.26416e-06
2.29927e-07
5.31602e-06
2.16621e-07
5.36676e-06
1.95588e-07
5.4146e-06
1.68126e-07
5.45759e-06
1.35863e-07
5.49392e-06
1.00432e-07
5.52219e-06
6.33915e-08
5.54139e-06
2.61325e-08
5.55097e-06
-1.01117e-08
5.55077e-06
-4.42001e-08
5.54082e-06
-7.49682e-08
5.52147e-06
-1.01482e-07
5.49374e-06
-1.23323e-07
5.45908e-06
-1.40464e-07
5.41924e-06
-1.5306e-07
5.37608e-06
-1.61296e-07
5.3313e-06
-1.65313e-07
5.28641e-06
-1.65213e-07
5.24273e-06
-1.61049e-07
5.20137e-06
-1.52794e-07
5.16334e-06
-1.40433e-07
5.12955e-06
-1.24032e-07
5.10084e-06
-1.03748e-07
5.07794e-06
-7.98458e-08
5.06147e-06
-5.27533e-08
5.05185e-06
-2.31799e-08
5.04926e-06
7.79124e-09
5.05359e-06
3.8806e-08
5.06455e-06
6.84046e-08
5.08166e-06
9.527e-08
5.10425e-06
1.18265e-07
5.13146e-06
1.36463e-07
5.16237e-06
1.49182e-07
5.19606e-06
1.56052e-07
5.23166e-06
1.56973e-07
5.26828e-06
1.52047e-07
5.30494e-06
1.41584e-07
5.34045e-06
1.2623e-07
5.37347e-06
1.0691e-07
5.40268e-06
8.46734e-08
5.42698e-06
6.05044e-08
5.44554e-06
3.53657e-08
5.4578e-06
1.01346e-08
5.4635e-06
-1.4358e-08
5.46256e-06
-3.72898e-08
5.45499e-06
-5.77853e-08
5.44106e-06
-7.527e-08
5.42147e-06
-8.93899e-08
5.39718e-06
-1.00043e-07
5.36936e-06
-1.0726e-07
-1.11128e-07
4.73446e-06
3.43329e-07
4.85876e-06
3.53658e-07
4.9918e-06
3.45926e-07
5.12902e-06
3.21017e-07
5.26371e-06
2.81643e-07
5.38763e-06
2.31992e-07
5.4926e-06
1.76666e-07
5.57225e-06
1.20041e-07
5.62291e-06
6.53213e-08
5.64369e-06
1.48893e-08
5.63478e-06
-2.8412e-08
5.59865e-06
-6.3045e-08
5.54061e-06
-8.87884e-08
5.46829e-06
-1.07565e-07
5.38903e-06
-1.21716e-07
5.3083e-06
-1.33354e-07
5.22898e-06
-1.43945e-07
5.15194e-06
-1.54344e-07
5.07695e-06
-1.64774e-07
5.00335e-06
-1.74786e-07
4.93061e-06
-1.83362e-07
4.85863e-06
-1.89107e-07
4.78796e-06
-1.90478e-07
4.7198e-06
-1.86103e-07
4.65591e-06
-1.75008e-07
4.59844e-06
-1.56537e-07
4.54968e-06
-1.30365e-07
4.51199e-06
-9.66744e-08
4.48743e-06
-5.59401e-08
4.47736e-06
-9.58895e-09
4.48232e-06
4.00238e-08
4.50224e-06
8.9813e-08
4.53627e-06
1.36808e-07
4.58308e-06
1.78364e-07
4.64106e-06
2.12275e-07
4.70845e-06
2.36862e-07
4.78334e-06
2.51019e-07
4.86361e-06
2.54201e-07
4.94689e-06
2.46487e-07
5.03011e-06
2.28783e-07
5.10954e-06
2.02731e-07
5.18137e-06
1.70416e-07
5.24227e-06
1.34045e-07
5.28972e-06
9.57518e-08
5.3222e-06
5.72532e-08
5.33922e-06
1.98101e-08
5.34096e-06
-1.53719e-08
5.32811e-06
-4.71443e-08
5.30204e-06
-7.45146e-08
5.26504e-06
-9.74867e-08
5.21968e-06
-1.16511e-07
5.16829e-06
-1.32076e-07
5.11276e-06
-1.44571e-07
5.0546e-06
-1.54201e-07
4.99508e-06
-1.60921e-07
4.93537e-06
-1.64408e-07
4.8766e-06
-1.64169e-07
4.81989e-06
-1.59737e-07
4.76648e-06
-1.50721e-07
4.71766e-06
-1.36824e-07
4.67481e-06
-1.17919e-07
4.63933e-06
-9.4103e-08
4.61263e-06
-6.57352e-08
4.59575e-06
-3.3487e-08
4.58941e-06
1.5236e-09
4.59379e-06
3.76083e-08
4.60866e-06
7.26463e-08
4.63333e-06
1.04841e-07
4.66684e-06
1.32635e-07
4.70795e-06
1.5474e-07
4.75528e-06
1.70226e-07
4.80734e-06
1.78536e-07
4.86257e-06
1.79478e-07
4.91926e-06
1.73242e-07
4.97537e-06
1.60502e-07
5.02866e-06
1.42308e-07
5.0769e-06
1.19882e-07
5.11823e-06
9.45359e-08
5.15113e-06
6.75234e-08
5.17462e-06
3.99095e-08
5.18819e-06
1.25559e-08
5.19174e-06
-1.36624e-08
5.18531e-06
-3.77667e-08
5.16936e-06
-5.90224e-08
5.14497e-06
-7.70855e-08
5.11363e-06
-9.19811e-08
5.07698e-06
-1.03817e-07
5.03662e-06
-1.12699e-07
4.99401e-06
-1.18686e-07
4.95047e-06
-1.2178e-07
4.90718e-06
-1.21924e-07
4.86515e-06
-1.19014e-07
4.8253e-06
-1.12942e-07
4.78852e-06
-1.03655e-07
4.75567e-06
-9.11804e-08
4.72757e-06
-7.56507e-08
4.70503e-06
-5.73054e-08
4.68877e-06
-3.6495e-08
4.67938e-06
-1.37851e-08
4.67717e-06
1.00018e-08
4.68224e-06
3.3732e-08
4.69446e-06
5.61887e-08
4.71338e-06
7.63483e-08
4.73833e-06
9.33144e-08
4.76844e-06
1.06355e-07
4.80267e-06
1.14948e-07
4.83992e-06
1.18806e-07
4.87901e-06
1.17878e-07
4.91864e-06
1.12423e-07
4.95723e-06
1.02985e-07
4.99321e-06
9.02566e-08
5.02514e-06
7.49781e-08
5.05187e-06
5.79392e-08
5.07252e-06
3.98614e-08
5.08654e-06
2.13454e-08
5.0937e-06
2.9748e-09
5.09391e-06
-1.45652e-08
5.0872e-06
-3.05872e-08
5.07404e-06
-4.46207e-08
5.05521e-06
-5.64399e-08
5.03179e-06
-6.59733e-08
5.00495e-06
-7.3207e-08
4.97584e-06
-7.81483e-08
-8.08138e-08
4.51844e-06
2.3351e-07
4.63652e-06
2.35587e-07
4.75613e-06
2.2631e-07
4.86956e-06
2.07594e-07
4.96948e-06
1.81718e-07
5.05027e-06
1.51204e-07
5.10858e-06
1.18356e-07
5.14352e-06
8.51049e-08
5.15595e-06
5.28863e-08
5.14811e-06
2.27329e-08
5.12329e-06
-3.59448e-09
5.08613e-06
-2.58862e-08
5.0416e-06
-4.42593e-08
4.99345e-06
-5.94176e-08
4.94384e-06
-7.21028e-08
4.89355e-06
-8.30597e-08
4.84247e-06
-9.2865e-08
4.78995e-06
-1.0183e-07
4.73518e-06
-1.10006e-07
4.67757e-06
-1.17175e-07
4.61705e-06
-1.22839e-07
4.55423e-06
-1.26285e-07
4.49043e-06
-1.26679e-07
4.42751e-06
-1.23183e-07
4.36758e-06
-1.15075e-07
4.31288e-06
-1.01838e-07
4.26576e-06
-8.32454e-08
4.22848e-06
-5.94014e-08
4.20327e-06
-3.07299e-08
4.19168e-06
2.01013e-09
4.19467e-06
3.70332e-08
4.21254e-06
7.1934e-08
4.24475e-06
1.04602e-07
4.29004e-06
1.33072e-07
4.34665e-06
1.55672e-07
4.41235e-06
1.7116e-07
4.48456e-06
1.78811e-07
4.56024e-06
1.78519e-07
4.63582e-06
1.70905e-07
4.70756e-06
1.57045e-07
4.77212e-06
1.38169e-07
4.82686e-06
1.15673e-07
4.86997e-06
9.09431e-08
4.90053e-06
6.5192e-08
4.9184e-06
3.93734e-08
4.92396e-06
1.4252e-08
4.91789e-06
-9.29512e-09
4.90117e-06
-3.04329e-08
4.87553e-06
-4.88684e-08
4.84276e-06
-6.47217e-08
4.80444e-06
-7.81846e-08
4.76181e-06
-8.94445e-08
4.71587e-06
-9.8633e-08
4.66745e-06
-1.05779e-07
4.6173e-06
-1.10778e-07
4.56628e-06
-1.13386e-07
4.51537e-06
-1.13258e-07
4.46566e-06
-1.10031e-07
4.41836e-06
-1.03414e-07
4.37475e-06
-9.32208e-08
4.33622e-06
-7.93898e-08
4.30416e-06
-6.20356e-08
4.27988e-06
-4.1463e-08
4.26459e-06
-1.81921e-08
4.25912e-06
6.99721e-09
4.26393e-06
3.27977e-08
4.27898e-06
5.7595e-08
4.30369e-06
8.0126e-08
4.33708e-06
9.92489e-08
4.3778e-06
1.14017e-07
4.42426e-06
1.23765e-07
4.47466e-06
1.28143e-07
4.52693e-06
1.27205e-07
4.57875e-06
1.21421e-07
4.62778e-06
1.11473e-07
4.67197e-06
9.81181e-08
4.70964e-06
8.22133e-08
4.73956e-06
6.46107e-08
4.76103e-06
4.60599e-08
4.77376e-06
2.71767e-08
4.77779e-06
8.52943e-09
4.77331e-06
-9.18313e-09
4.76091e-06
-2.53658e-08
4.74161e-06
-3.97314e-08
4.71673e-06
-5.22053e-08
4.68752e-06
-6.27657e-08
4.6551e-06
-7.13974e-08
4.62047e-06
-7.80738e-08
4.58453e-06
-8.27466e-08
4.5481e-06
-8.53412e-08
4.51191e-06
-8.57426e-08
4.47673e-06
-8.38315e-08
4.44332e-06
-7.95257e-08
4.41246e-06
-7.27964e-08
4.38496e-06
-6.36857e-08
4.36163e-06
-5.23212e-08
4.34324e-06
-3.89154e-08
4.33051e-06
-2.37625e-08
4.32401e-06
-7.28689e-09
4.32416e-06
9.85733e-09
4.33115e-06
2.67353e-08
4.34483e-06
4.25142e-08
4.36468e-06
5.64932e-08
4.38996e-06
6.80386e-08
4.41967e-06
7.66455e-08
4.45264e-06
8.19794e-08
4.48753e-06
8.39162e-08
4.5228e-06
8.26018e-08
4.55687e-06
7.83542e-08
4.58831e-06
7.15487e-08
4.61592e-06
6.26424e-08
4.63877e-06
5.21304e-08
4.65621e-06
4.04987e-08
4.6679e-06
2.81703e-08
4.67372e-06
1.55268e-08
4.67369e-06
3.00848e-09
4.66799e-06
-8.86758e-09
4.65711e-06
-1.97066e-08
4.64182e-06
-2.93296e-08
4.62299e-06
-3.76132e-08
4.60149e-06
-4.44678e-08
4.5781e-06
-4.98229e-08
4.55358e-06
-5.36288e-08
-5.5853e-08
4.21808e-06
1.57109e-07
4.29455e-06
1.5912e-07
4.36616e-06
1.54698e-07
4.42913e-06
1.44617e-07
4.48096e-06
1.29895e-07
4.52045e-06
1.11713e-07
4.54754e-06
9.12659e-08
4.56296e-06
6.96826e-08
4.56784e-06
4.80072e-08
4.56337e-06
2.72012e-08
4.5512e-06
8.57902e-09
4.53342e-06
-8.10492e-09
4.51114e-06
-2.19847e-08
4.48531e-06
-3.35894e-08
4.45643e-06
-4.32198e-08
4.42468e-06
-5.13043e-08
4.39003e-06
-5.82223e-08
4.35242e-06
-6.42209e-08
4.31181e-06
-6.93943e-08
4.26831e-06
-7.36712e-08
4.22228e-06
-7.68107e-08
4.17442e-06
-7.84287e-08
4.12579e-06
-7.80455e-08
4.07774e-06
-7.51281e-08
4.03183e-06
-6.91676e-08
3.98979e-06
-5.97968e-08
3.95341e-06
-4.68702e-08
3.92451e-06
-3.05046e-08
3.90506e-06
-1.12747e-08
3.89627e-06
1.07954e-08
3.89954e-06
3.37662e-08
3.91509e-06
5.63849e-08
3.94232e-06
7.7376e-08
3.97988e-06
9.55133e-08
4.0258e-06
1.09745e-07
4.07764e-06
1.19327e-07
4.13254e-06
1.23905e-07
4.18749e-06
1.23567e-07
4.23969e-06
1.18707e-07
4.28685e-06
1.09886e-07
4.3272e-06
9.78229e-08
4.35955e-06
8.33227e-08
4.3833e-06
6.71913e-08
4.39832e-06
5.01658e-08
4.40482e-06
3.28784e-08
4.4032e-06
1.58734e-08
4.39412e-06
-2.12882e-10
4.37864e-06
-1.4954e-08
4.35797e-06
-2.8201e-08
4.33314e-06
-3.9889e-08
4.30496e-06
-5.00081e-08
4.27409e-06
-5.85695e-08
4.24102e-06
-6.55693e-08
4.20621e-06
-7.09639e-08
4.17008e-06
-7.46527e-08
4.13317e-06
-7.64774e-08
4.09615e-06
-7.6235e-08
4.05983e-06
-7.37126e-08
4.02516e-06
-6.87431e-08
3.99318e-06
-6.12378e-08
3.96499e-06
-5.12021e-08
3.94172e-06
-3.87643e-08
3.92445e-06
-2.41969e-08
3.91421e-06
-7.94851e-09
3.91177e-06
9.43244e-09
3.91765e-06
2.69256e-08
3.93169e-06
4.35534e-08
3.95326e-06
5.85496e-08
3.98132e-06
7.11914e-08
4.01445e-06
8.08905e-08
4.05095e-06
8.72617e-08
4.08893e-06
9.01601e-08
4.12646e-06
8.96776e-08
4.1618e-06
8.60823e-08
4.19353e-06
7.97452e-08
4.22053e-06
7.11162e-08
4.24205e-06
6.06928e-08
4.25768e-06
4.89805e-08
4.26729e-06
3.64493e-08
4.27096e-06
2.35107e-08
4.26893e-06
1.0559e-08
4.26163e-06
-1.88844e-09
4.24976e-06
-1.34964e-08
4.23411e-06
-2.40787e-08
4.21539e-06
-3.34866e-08
4.19423e-06
-4.16021e-08
4.17117e-06
-4.83369e-08
4.14671e-06
-5.36162e-08
4.12134e-06
-5.73706e-08
4.09553e-06
-5.95317e-08
4.0698e-06
-6.00149e-08
4.04471e-06
-5.87442e-08
4.02087e-06
-5.56836e-08
3.99891e-06
-5.08389e-08
3.97949e-06
-4.42668e-08
3.96326e-06
-3.60859e-08
3.95082e-06
-2.64742e-08
3.94273e-06
-1.56756e-08
3.93948e-06
-4.03523e-09
3.94138e-06
7.95338e-09
3.94849e-06
1.96294e-08
3.9605e-06
3.05023e-08
3.97686e-06
4.01273e-08
3.9968e-06
4.8101e-08
4.01934e-06
5.411e-08
4.04335e-06
5.7963e-08
4.06766e-06
5.96065e-08
4.09116e-06
5.91048e-08
4.1129e-06
5.66106e-08
4.13211e-06
5.23426e-08
4.14818e-06
4.65714e-08
4.16071e-06
3.96e-08
4.16948e-06
3.17342e-08
4.17438e-06
2.32715e-08
4.17542e-06
1.44803e-08
4.17275e-06
5.68196e-09
4.16664e-06
-2.75612e-09
4.15755e-06
-1.06232e-08
4.14598e-06
-1.77546e-08
4.13238e-06
-2.40116e-08
4.11719e-06
-2.92855e-08
4.10087e-06
-3.34945e-08
4.08382e-06
-3.65795e-08
-3.85004e-08
3.61608e-06
1.14771e-07
3.658e-06
1.17204e-07
3.69734e-06
1.15354e-07
3.73241e-06
1.09542e-07
3.76194e-06
1.00369e-07
3.78507e-06
8.85841e-08
3.8014e-06
7.49355e-08
3.81091e-06
6.01747e-08
3.81388e-06
4.50402e-08
3.81085e-06
3.02246e-08
3.80303e-06
1.63984e-08
3.79107e-06
3.86128e-09
3.77612e-06
-7.03699e-09
3.75904e-06
-1.65077e-08
3.74035e-06
-2.45339e-08
3.72033e-06
-3.12797e-08
3.69904e-06
-3.69347e-08
3.67646e-06
-4.16459e-08
3.65256e-06
-4.54913e-08
3.62734e-06
-4.84526e-08
3.60093e-06
-5.04029e-08
3.57363e-06
-5.11287e-08
3.54595e-06
-5.03568e-08
3.5186e-06
-4.77777e-08
3.49251e-06
-4.30818e-08
3.46876e-06
-3.60503e-08
3.44852e-06
-2.66287e-08
3.43295e-06
-1.49308e-08
3.42304e-06
-1.36893e-09
3.42018e-06
1.36605e-08
3.4247e-06
2.92392e-08
3.43655e-06
4.45386e-08
3.45514e-06
5.87851e-08
3.47945e-06
7.12056e-08
3.50806e-06
8.11381e-08
3.53927e-06
8.81103e-08
3.57131e-06
9.18647e-08
3.60254e-06
9.23371e-08
3.63159e-06
8.96617e-08
3.65734e-06
8.41318e-08
3.679e-06
7.61604e-08
3.69608e-06
6.62426e-08
3.70836e-06
5.49108e-08
3.71584e-06
4.26907e-08
3.71865e-06
3.00633e-08
3.71707e-06
1.74565e-08
3.71154e-06
5.31866e-09
3.70259e-06
-6.00339e-09
3.6907e-06
-1.63085e-08
3.67626e-06
-2.54566e-08
3.65964e-06
-3.33849e-08
3.64113e-06
-4.00558e-08
3.621e-06
-4.54378e-08
3.59952e-06
-4.94889e-08
3.57701e-06
-5.21438e-08
3.55385e-06
-5.33129e-08
3.5305e-06
-5.28925e-08
3.50757e-06
-5.0778e-08
3.48571e-06
-4.68825e-08
3.46565e-06
-4.11761e-08
3.44815e-06
-3.37002e-08
3.43396e-06
-2.45739e-08
3.42378e-06
-1.40181e-08
3.41825e-06
-2.42542e-09
3.41787e-06
9.81397e-09
3.42277e-06
2.20273e-08
3.43268e-06
3.36475e-08
3.44705e-06
4.41795e-08
3.46509e-06
5.31508e-08
3.48581e-06
6.01725e-08
3.50809e-06
6.49815e-08
3.5308e-06
6.74489e-08
3.55292e-06
6.75584e-08
3.57358e-06
6.54217e-08
3.59207e-06
6.12545e-08
3.60785e-06
5.53373e-08
3.62054e-06
4.79984e-08
3.62993e-06
3.95924e-08
3.63591e-06
3.04706e-08
3.63846e-06
2.09546e-08
3.63768e-06
1.13444e-08
3.63381e-06
1.98184e-09
3.62714e-06
-6.82476e-09
3.61797e-06
-1.49168e-08
3.60664e-06
-2.21474e-08
3.59344e-06
-2.84088e-08
3.57872e-06
-3.36177e-08
3.56281e-06
-3.77058e-08
3.54606e-06
-4.06159e-08
3.52882e-06
-4.22979e-08
3.51151e-06
-4.27011e-08
3.49455e-06
-4.17828e-08
3.47839e-06
-3.95295e-08
3.46352e-06
-3.5963e-08
3.45039e-06
-3.11415e-08
3.43947e-06
-2.51636e-08
3.43117e-06
-1.81687e-08
3.42584e-06
-1.03475e-08
3.42377e-06
-1.97132e-09
3.42512e-06
6.61043e-09
3.42978e-06
1.49656e-08
3.4375e-06
2.27827e-08
3.44787e-06
2.97596e-08
3.46035e-06
3.5619e-08
3.47432e-06
4.01416e-08
3.48909e-06
4.31864e-08
3.50402e-06
4.46829e-08
3.51849e-06
4.46322e-08
3.53198e-06
4.31164e-08
3.54405e-06
4.02769e-08
3.55433e-06
3.6294e-08
3.56255e-06
3.13768e-08
3.56854e-06
2.57493e-08
3.57217e-06
1.96344e-08
3.57342e-06
1.32371e-08
3.57231e-06
6.78875e-09
3.56903e-06
5.20713e-10
3.56378e-06
-5.37302e-09
3.55678e-06
-1.07551e-08
3.54829e-06
-1.55153e-08
3.53856e-06
-1.95626e-08
3.5279e-06
-2.28265e-08
3.51657e-06
-2.5255e-08
-2.68127e-08
2.69629e-06
8.64219e-08
2.72451e-06
8.89891e-08
2.75138e-06
8.84781e-08
2.77589e-06
8.50327e-08
2.79725e-06
7.90093e-08
2.81498e-06
7.08601e-08
2.82884e-06
6.10735e-08
2.83882e-06
5.01937e-08
2.84507e-06
3.87896e-08
2.84787e-06
2.7426e-08
2.84765e-06
1.66147e-08
2.84479e-06
6.71871e-09
2.83974e-06
-1.98188e-09
2.83277e-06
-9.53601e-09
2.82414e-06
-1.59071e-08
2.81407e-06
-2.12142e-08
2.80275e-06
-2.56069e-08
2.7903e-06
-2.91991e-08
2.77686e-06
-3.20542e-08
2.76258e-06
-3.41692e-08
2.74764e-06
-3.54649e-08
2.73231e-06
-3.58002e-08
2.71695e-06
-3.49905e-08
2.70201e-06
-3.28371e-08
2.68807e-06
-2.91452e-08
2.67581e-06
-2.37916e-08
2.66593e-06
-1.67482e-08
2.65911e-06
-8.11015e-09
2.65605e-06
1.69276e-09
2.65725e-06
1.24625e-08
2.66283e-06
2.36571e-08
2.67267e-06
3.46922e-08
2.68646e-06
4.49977e-08
2.70363e-06
5.40352e-08
2.72343e-06
6.13409e-08
2.74497e-06
6.65667e-08
2.76734e-06
6.95008e-08
2.78962e-06
7.00558e-08
2.81099e-06
6.82898e-08
2.83073e-06
6.43955e-08
2.84823e-06
5.86591e-08
2.86304e-06
5.14323e-08
2.87485e-06
4.31018e-08
2.88348e-06
3.40581e-08
2.88887e-06
2.46703e-08
2.89106e-06
1.5269e-08
2.89023e-06
6.15259e-09
2.88657e-06
-2.34281e-09
2.88039e-06
-1.01363e-08
2.87199e-06
-1.70564e-08
2.86166e-06
-2.30532e-08
2.84969e-06
-2.80828e-08
2.83636e-06
-3.21085e-08
2.82196e-06
-3.50927e-08
2.80681e-06
-3.69884e-08
2.79123e-06
-3.77387e-08
2.77563e-06
-3.72887e-08
2.76044e-06
-3.55856e-08
2.74614e-06
-3.25847e-08
2.73324e-06
-2.82804e-08
2.72227e-06
-2.27229e-08
2.7137e-06
-1.60076e-08
2.70794e-06
-8.25947e-09
2.70554e-06
-2.37506e-11
2.70663e-06
8.72328e-09
2.71121e-06
1.74471e-08
2.71909e-06
2.57732e-08
2.72993e-06
3.33306e-08
2.7433e-06
3.97862e-08
2.7586e-06
4.48674e-08
2.7752e-06
4.83818e-08
2.79243e-06
5.02245e-08
2.80961e-06
5.03722e-08
2.82614e-06
4.88918e-08
2.84147e-06
4.59291e-08
2.85513e-06
4.16818e-08
2.86674e-06
3.6384e-08
2.87604e-06
3.02895e-08
2.88286e-06
2.36549e-08
2.88709e-06
1.67205e-08
2.88873e-06
9.70664e-09
2.88789e-06
2.82268e-09
2.88463e-06
-3.56145e-09
2.87923e-06
-9.52125e-09
2.87193e-06
-1.48491e-08
2.863e-06
-1.94723e-08
2.8527e-06
-2.3324e-08
2.84135e-06
-2.63491e-08
2.82923e-06
-2.85017e-08
2.81668e-06
-2.9743e-08
2.80402e-06
-3.00415e-08
2.79161e-06
-2.93736e-08
2.77981e-06
-2.77342e-08
2.76899e-06
-2.51432e-08
2.7595e-06
-2.16481e-08
2.75167e-06
-1.73352e-08
2.74581e-06
-1.23065e-08
2.74215e-06
-6.69356e-09
2.74091e-06
-7.29606e-10
2.74215e-06
5.37056e-09
2.74579e-06
1.13326e-08
2.75164e-06
1.69325e-08
2.75945e-06
2.19472e-08
2.76889e-06
2.61791e-08
2.77956e-06
2.94714e-08
2.79103e-06
3.17187e-08
2.80284e-06
3.28678e-08
2.81456e-06
3.2913e-08
2.82577e-06
3.19049e-08
2.83611e-06
2.99386e-08
2.84527e-06
2.71389e-08
2.85299e-06
2.36532e-08
2.8591e-06
1.96406e-08
2.86347e-06
1.52649e-08
2.86602e-06
1.06854e-08
2.86675e-06
6.05363e-09
2.86576e-06
1.51497e-09
2.86314e-06
-2.75417e-09
2.85906e-06
-6.67354e-09
2.8537e-06
-1.0152e-08
2.84726e-06
-1.31227e-08
2.83996e-06
-1.55311e-08
2.83204e-06
-1.73354e-08
-1.8507e-08
1.66237e-06
5.7779e-08
1.69172e-06
5.96359e-08
1.72077e-06
5.94287e-08
1.74857e-06
5.72342e-08
1.7743e-06
5.32781e-08
1.7973e-06
4.78626e-08
1.81703e-06
4.13371e-08
1.83316e-06
3.40708e-08
1.84551e-06
2.64418e-08
1.85411e-06
1.88191e-08
1.85921e-06
1.15181e-08
1.86119e-06
4.73564e-09
1.86028e-06
-1.06921e-09
1.85708e-06
-6.34118e-09
1.85203e-06
-1.08561e-08
1.84548e-06
-1.46602e-08
1.8377e-06
-1.78299e-08
1.82893e-06
-2.04278e-08
1.81936e-06
-2.248e-08
1.80916e-06
-2.39716e-08
1.79854e-06
-2.48469e-08
1.78777e-06
-2.50248e-08
1.77717e-06
-2.43929e-08
1.76715e-06
-2.2817e-08
1.75819e-06
-2.01879e-08
1.75084e-06
-1.64435e-08
1.74568e-06
-1.15827e-08
1.74322e-06
-5.65799e-09
1.74396e-06
9.57839e-10
1.74832e-06
8.09702e-09
1.7564e-06
1.55776e-08
1.76814e-06
2.29545e-08
1.78331e-06
2.98294e-08
1.8015e-06
3.5848e-08
1.82213e-06
4.07113e-08
1.8445e-06
4.41969e-08
1.86783e-06
4.61681e-08
1.89131e-06
4.6573e-08
1.91415e-06
4.54479e-08
1.93564e-06
4.29121e-08
1.95514e-06
3.91522e-08
1.97218e-06
3.44e-08
1.98637e-06
2.89089e-08
1.9975e-06
2.29313e-08
2.00546e-06
1.67087e-08
2.01027e-06
1.04563e-08
2.01206e-06
4.35909e-09
2.01103e-06
-1.30458e-09
2.00744e-06
-6.54928e-09
2.00161e-06
-1.12321e-08
1.99387e-06
-1.53122e-08
1.98454e-06
-1.87469e-08
1.97393e-06
-2.14993e-08
1.96237e-06
-2.35376e-08
1.95021e-06
-2.4827e-08
1.9378e-06
-2.53287e-08
1.92552e-06
-2.501e-08
1.91378e-06
-2.38416e-08
1.903e-06
-2.18035e-08
1.89362e-06
-1.89038e-08
1.88608e-06
-1.51827e-08
1.88078e-06
-1.07093e-08
1.87808e-06
-5.56035e-09
1.8782e-06
-1.35292e-10
1.88138e-06
5.54184e-09
1.88756e-06
1.12616e-08
1.89661e-06
1.67292e-08
1.90825e-06
2.16899e-08
1.92211e-06
2.59278e-08
1.9377e-06
2.927e-08
1.95449e-06
3.15954e-08
1.97188e-06
3.28377e-08
1.98926e-06
3.29833e-08
2.00609e-06
3.20709e-08
2.02183e-06
3.01886e-08
2.03604e-06
2.74641e-08
2.04838e-06
2.40476e-08
2.05857e-06
2.00998e-08
2.06644e-06
1.57837e-08
2.07191e-06
1.12529e-08
2.07496e-06
6.66025e-09
2.07567e-06
2.1065e-09
2.07413e-06
-2.02213e-09
2.07057e-06
-5.96052e-09
2.06521e-06
-9.49214e-09
2.05831e-06
-1.25666e-08
2.05012e-06
-1.51377e-08
2.04094e-06
-1.71662e-08
2.03106e-06
-1.86181e-08
2.02078e-06
-1.94649e-08
2.01042e-06
-1.96845e-08
2.00031e-06
-1.92644e-08
1.99078e-06
-1.82003e-08
1.98215e-06
-1.65136e-08
1.97474e-06
-1.42363e-08
1.96882e-06
-1.14235e-08
1.96467e-06
-8.14925e-09
1.96247e-06
-4.4981e-09
1.96235e-06
-6.08215e-10
1.96442e-06
3.29696e-09
1.9686e-06
7.15806e-09
1.97473e-06
1.07968e-08
1.98262e-06
1.40601e-08
1.99198e-06
1.68207e-08
2.00247e-06
1.89783e-08
2.01373e-06
2.04632e-08
2.02536e-06
2.12399e-08
2.03696e-06
2.13064e-08
2.04818e-06
2.06923e-08
2.05866e-06
1.94563e-08
2.06812e-06
1.76772e-08
2.07633e-06
1.54471e-08
2.0831e-06
1.28676e-08
2.08832e-06
1.00459e-08
2.09192e-06
7.08795e-09
2.09388e-06
4.09116e-09
2.09426e-06
1.13125e-09
2.09312e-06
-1.6091e-09
2.0906e-06
-4.16219e-09
2.08689e-06
-6.4342e-09
2.08215e-06
-8.38097e-09
2.07658e-06
-9.96522e-09
2.0704e-06
-1.11568e-08
-1.19353e-08
7.86306e-07
2.67612e-08
8.18093e-07
2.78485e-08
8.49593e-07
2.79283e-08
8.798e-07
2.70278e-08
9.07835e-07
2.52431e-08
9.3298e-07
2.27172e-08
9.54702e-07
1.96155e-08
9.72652e-07
1.61208e-08
9.86669e-07
1.24245e-08
9.96795e-07
8.69349e-09
1.00325e-06
5.06693e-09
1.00638e-06
1.60593e-09
1.00646e-06
-1.15179e-09
1.00395e-06
-3.83223e-09
9.99253e-07
-6.15941e-09
9.92747e-07
-8.15442e-09
9.84771e-07
-9.85391e-09
9.75632e-07
-1.12891e-08
9.65619e-07
-1.24669e-08
9.55018e-07
-1.33699e-08
9.44131e-07
-1.39602e-08
9.33291e-07
-1.41848e-08
9.22885e-07
-1.39868e-08
9.13367e-07
-1.32997e-08
9.05239e-07
-1.20599e-08
8.99023e-07
-1.02268e-08
8.95231e-07
-7.79118e-09
8.94347e-07
-4.77355e-09
8.96562e-07
-1.25787e-09
9.02713e-07
1.9467e-09
9.12581e-07
5.709e-09
9.26092e-07
9.44348e-09
9.42988e-07
1.2934e-08
9.62826e-07
1.60101e-08
9.85007e-07
1.85304e-08
1.00882e-06
2.03878e-08
1.03347e-06
2.15134e-08
1.05816e-06
2.18802e-08
1.08211e-06
2.14967e-08
1.10462e-06
2.04115e-08
1.12505e-06
1.87168e-08
1.14293e-06
1.65232e-08
1.15789e-06
1.39467e-08
1.16971e-06
1.11075e-08
1.17831e-06
8.11583e-09
1.1837e-06
5.06643e-09
1.18604e-06
2.01727e-09
1.18536e-06
-6.24768e-10
1.18201e-06
-3.20351e-09
1.17635e-06
-5.57214e-09
1.16871e-06
-7.66744e-09
1.15942e-06
-9.46165e-09
1.14885e-06
-1.09316e-08
1.13737e-06
-1.20566e-08
1.12537e-06
-1.28207e-08
1.11325e-06
-1.32118e-08
1.10145e-06
-1.32051e-08
1.09037e-06
-1.27693e-08
1.08046e-06
-1.18851e-08
1.0721e-06
-1.05487e-08
1.06569e-06
-8.77373e-09
1.06158e-06
-6.59472e-09
1.06007e-06
-4.0582e-09
1.06117e-06
-1.23299e-09
1.06542e-06
1.29576e-09
1.07254e-06
4.13971e-09
1.08238e-06
6.88515e-09
1.09468e-06
9.39062e-09
1.10906e-06
1.15519e-08
1.12504e-06
1.32869e-08
1.1421e-06
1.45366e-08
1.15967e-06
1.52682e-08
1.17718e-06
1.54721e-08
1.19409e-06
1.51587e-08
1.20992e-06
1.43669e-08
1.22422e-06
1.31594e-08
1.23666e-06
1.1605e-08
1.24699e-06
9.77659e-09
1.25502e-06
7.74849e-09
1.26068e-06
5.59339e-09
1.26397e-06
3.37593e-09
1.26496e-06
1.11493e-09
1.26369e-06
-7.58184e-10
1.26043e-06
-2.69913e-09
1.25541e-06
-4.47415e-09
1.24888e-06
-6.03717e-09
1.24111e-06
-7.36327e-09
1.23238e-06
-8.43485e-09
1.22299e-06
-9.23116e-09
1.21326e-06
-9.73593e-09
1.20352e-06
-9.9378e-09
1.19408e-06
-9.82657e-09
1.18528e-06
-9.40034e-09
1.17743e-06
-8.66241e-09
1.17081e-06
-7.62218e-09
1.16569e-06
-6.30234e-09
1.16228e-06
-4.73506e-09
1.16074e-06
-2.95897e-09
1.16112e-06
-9.92627e-10
1.16368e-06
7.36762e-10
1.1682e-06
2.6364e-09
1.17456e-06
4.44557e-09
1.18254e-06
6.07742e-09
1.19189e-06
7.47057e-09
1.20229e-06
8.57895e-09
1.21338e-06
9.36962e-09
1.2248e-06
9.82234e-09
1.23617e-06
9.93193e-09
1.24716e-06
9.70878e-09
1.25743e-06
9.1818e-09
1.26672e-06
8.38995e-09
1.27479e-06
7.37338e-09
1.28148e-06
6.17681e-09
1.28668e-06
4.84913e-09
1.29033e-06
3.44222e-09
1.29242e-06
1.99903e-09
1.29301e-06
5.36714e-10
1.2921e-06
-6.96614e-10
1.2899e-06
-1.95863e-09
1.28655e-06
-3.09234e-09
1.28225e-06
-4.07218e-09
1.27716e-06
-4.88121e-09
1.27151e-06
-5.50414e-09
-5.93013e-09
1.5557e-07
1.83418e-07
2.11346e-07
2.38374e-07
2.63617e-07
2.86334e-07
3.0595e-07
3.22071e-07
3.34495e-07
3.43189e-07
3.48256e-07
3.49862e-07
3.4871e-07
3.44878e-07
3.38718e-07
3.30564e-07
3.2071e-07
3.09421e-07
2.96954e-07
2.83584e-07
2.69624e-07
2.55439e-07
2.41452e-07
2.28152e-07
2.16093e-07
2.05866e-07
1.98075e-07
1.93301e-07
1.92043e-07
1.9399e-07
1.99699e-07
2.09142e-07
2.22076e-07
2.38086e-07
2.56617e-07
2.77005e-07
2.98518e-07
3.20398e-07
3.41895e-07
3.62307e-07
3.81023e-07
3.97547e-07
4.11493e-07
4.22601e-07