/*--------------------------------*- C++ -*----------------------------------*\
| =========                 |                                                 |
| \\      /  F ield         | OpenFOAM: The Open Source CFD Toolbox           |
|  \\    /   O peration     | Version:  2206                                  |
|   \\  /    A nd           | Website:  www.openfoam.com                      |
|    \\/     M anipulation  |                                                 |
\*---------------------------------------------------------------------------*/
FoamFile
{
    version     2.0;
    format      ascii;
    arch        "LSB;label=32;scalar=64";
    class       surfaceScalarField;
    location    "18.0999";
    object      phi_0;
}
// * * * * * * * * * * * * * * * * * * * * * * * * * * * * * * * * * * * * * //

dimensions      [0 3 -1 0 0 0 0];

oriented        oriented;

internalField   nonuniform List<scalar> 
5976
(
9.49506e-06
6.88868e-07
-7.27463e-07
9.52214e-06
1.04145e-06
-1.06853e-06
9.53603e-06
1.35029e-06
-1.36418e-06
9.53565e-06
1.61086e-06
-1.61048e-06
9.52049e-06
1.82203e-06
-1.80687e-06
9.4905e-06
1.98534e-06
-1.95535e-06
9.44563e-06
2.10418e-06
-2.05931e-06
9.38498e-06
2.18272e-06
-2.12207e-06
9.30814e-06
2.22412e-06
-2.14729e-06
9.21783e-06
2.2319e-06
-2.1416e-06
9.11775e-06
2.21148e-06
-2.1114e-06
9.01193e-06
2.16571e-06
-2.05989e-06
8.90471e-06
2.09445e-06
-1.98723e-06
8.8001e-06
1.99594e-06
-1.89133e-06
8.70139e-06
1.86786e-06
-1.76916e-06
8.61123e-06
1.70813e-06
-1.61797e-06
8.53178e-06
1.51581e-06
-1.43636e-06
8.46485e-06
1.29175e-06
-1.22482e-06
8.41193e-06
1.03879e-06
-9.85869e-07
8.37412e-06
7.61705e-07
-7.23895e-07
8.35208e-06
4.67023e-07
-4.44982e-07
8.34567e-06
1.63424e-07
-1.57012e-07
8.354e-06
-1.38505e-07
1.30171e-07
8.37566e-06
-4.30697e-07
4.09043e-07
8.40883e-06
-7.06087e-07
6.72917e-07
8.45141e-06
-9.58377e-07
9.158e-07
8.50108e-06
-1.1824e-06
1.13273e-06
8.55552e-06
-1.37452e-06
1.32008e-06
8.61232e-06
-1.53237e-06
1.47557e-06
8.66927e-06
-1.6551e-06
1.59815e-06
8.72478e-06
-1.74352e-06
1.68801e-06
8.77844e-06
-1.7997e-06
1.74605e-06
8.83153e-06
-1.82465e-06
1.77156e-06
8.88475e-06
-1.81285e-06
1.75963e-06
8.9369e-06
-1.75972e-06
1.70757e-06
8.98767e-06
-1.6662e-06
1.61543e-06
9.03731e-06
-1.53397e-06
1.48433e-06
9.08612e-06
-1.36472e-06
1.31591e-06
9.1342e-06
-1.16056e-06
1.11248e-06
9.18139e-06
-9.24501e-07
8.77307e-07
9.22723e-06
-6.6079e-07
6.14953e-07
9.27079e-06
-3.7537e-07
3.3181e-07
9.31024e-06
-7.67011e-08
3.72471e-08
9.34335e-06
2.22842e-07
-2.55945e-07
9.36854e-06
5.12917e-07
-5.38115e-07
9.38439e-06
7.85348e-07
-8.01198e-07
9.38974e-06
1.03305e-06
-1.0384e-06
9.3838e-06
1.25051e-06
-1.24457e-06
9.36626e-06
1.43399e-06
-1.41645e-06
9.33727e-06
1.58157e-06
-1.55258e-06
9.29723e-06
1.69301e-06
-1.65297e-06
9.24607e-06
1.76927e-06
-1.71811e-06
9.1831e-06
1.81128e-06
-1.7483e-06
9.10924e-06
1.81924e-06
-1.74538e-06
9.02739e-06
1.79564e-06
-1.71378e-06
8.94062e-06
1.74402e-06
-1.65726e-06
8.8523e-06
1.66693e-06
-1.5786e-06
8.76557e-06
1.56645e-06
-1.47972e-06
8.68311e-06
1.44415e-06
-1.36169e-06
8.60716e-06
1.30101e-06
-1.22506e-06
8.53955e-06
1.13794e-06
-1.07033e-06
8.48182e-06
9.56086e-07
-8.98359e-07
8.43525e-06
7.57264e-07
-7.10687e-07
8.40081e-06
5.44192e-07
-5.09758e-07
8.3792e-06
3.20713e-07
-2.99097e-07
8.3706e-06
9.23588e-08
-8.37608e-08
8.37455e-06
-1.33822e-07
1.29872e-07
8.39015e-06
-3.52413e-07
3.36806e-07
8.4162e-06
-5.5823e-07
5.32187e-07
8.45115e-06
-7.46515e-07
7.11558e-07
8.49325e-06
-9.13215e-07
8.71116e-07
8.54055e-06
-1.05522e-06
1.00792e-06
8.59116e-06
-1.17064e-06
1.12003e-06
8.64348e-06
-1.25882e-06
1.20649e-06
8.69653e-06
-1.32016e-06
1.2671e-06
8.75034e-06
-1.35527e-06
1.30147e-06
8.80536e-06
-1.36218e-06
1.30716e-06
8.86069e-06
-1.33707e-06
1.28174e-06
8.91516e-06
-1.27957e-06
1.2251e-06
8.968e-06
-1.19094e-06
1.1381e-06
9.01878e-06
-1.0732e-06
1.02242e-06
9.0672e-06
-9.28693e-07
8.8028e-07
9.11295e-06
-7.60158e-07
7.14403e-07
9.15567e-06
-5.70867e-07
5.28151e-07
9.19473e-06
-3.64899e-07
3.25841e-07
9.22897e-06
-1.4772e-07
1.13472e-07
9.2567e-06
7.25646e-08
-1.00293e-07
9.27689e-06
2.87843e-07
-3.08032e-07
9.2886e-06
4.92147e-07
-5.0386e-07
9.29111e-06
6.8011e-07
-6.82612e-07
9.28397e-06
8.47293e-07
-8.40155e-07
9.26714e-06
9.90403e-07
-9.73571e-07
9.24091e-06
1.10741e-06
-1.08118e-06
9.20573e-06
1.1975e-06
-1.16232e-06
9.16176e-06
1.2608e-06
-1.21683e-06
9.10868e-06
1.29751e-06
-1.24444e-06
9.0472e-06
1.30731e-06
-1.24582e-06
8.97953e-06
1.29137e-06
-1.2237e-06
8.90806e-06
1.25216e-06
-1.18069e-06
8.83547e-06
1.1917e-06
-1.11911e-06
8.76436e-06
1.11199e-06
-1.04088e-06
8.697e-06
1.01482e-06
-9.47452e-07
8.63528e-06
9.01565e-07
-8.39853e-07
8.58079e-06
7.73446e-07
-7.18946e-07
8.53475e-06
6.31751e-07
-5.85715e-07
8.49817e-06
4.78091e-07
-4.41506e-07
8.47177e-06
3.14652e-07
-2.88252e-07
8.456e-06
1.44493e-07
-1.28729e-07
8.45092e-06
-2.78327e-08
3.29189e-08
8.45601e-06
-1.97479e-07
1.92384e-07
8.47051e-06
-3.60506e-07
3.46008e-07
8.49337e-06
-5.13078e-07
4.90218e-07
8.5233e-06
-6.51669e-07
6.21736e-07
8.55884e-06
-7.73337e-07
7.37798e-07
8.59847e-06
-8.7597e-07
8.3634e-07
8.6408e-06
-9.58388e-07
9.16063e-07
8.68471e-06
-1.02024e-06
9.76326e-07
8.72967e-06
-1.06175e-06
1.0168e-06
8.77582e-06
-1.08274e-06
1.03659e-06
8.82304e-06
-1.08086e-06
1.03364e-06
8.87038e-06
-1.0544e-06
1.00706e-06
8.91689e-06
-1.00351e-06
9.56996e-07
-9.293e-07
8.8431e-07
9.26931e-06
6.48228e-07
9.30288e-06
1.00789e-06
9.32708e-06
1.32609e-06
9.34008e-06
1.59786e-06
9.34063e-06
1.82148e-06
9.32814e-06
1.99783e-06
9.30248e-06
2.12984e-06
9.2635e-06
2.2217e-06
9.21051e-06
2.27711e-06
9.14392e-06
2.29849e-06
9.06693e-06
2.28847e-06
8.98319e-06
2.24945e-06
8.89695e-06
2.1807e-06
8.81205e-06
2.08084e-06
8.73149e-06
1.94841e-06
8.65781e-06
1.78182e-06
8.59316e-06
1.58046e-06
8.5394e-06
1.34551e-06
8.49798e-06
1.08021e-06
8.46995e-06
7.89737e-07
8.45585e-06
4.81122e-07
8.45534e-06
1.63936e-07
8.46735e-06
-1.50515e-07
8.4903e-06
-4.5365e-07
8.5223e-06
-7.38094e-07
8.56128e-06
-9.9735e-07
8.60505e-06
-1.22617e-06
8.65154e-06
-1.42101e-06
8.69853e-06
-1.57936e-06
8.74393e-06
-1.7005e-06
8.78599e-06
-1.78559e-06
8.82389e-06
-1.83759e-06
8.85909e-06
-1.85985e-06
8.89378e-06
-1.84755e-06
8.92581e-06
-1.79175e-06
8.95576e-06
-1.69615e-06
8.98471e-06
-1.56293e-06
9.01355e-06
-1.39356e-06
9.04288e-06
-1.18989e-06
9.07297e-06
-9.54592e-07
9.10377e-06
-6.91587e-07
9.1348e-06
-4.06399e-07
9.1649e-06
-1.06801e-07
9.19207e-06
1.95672e-07
9.21484e-06
4.90149e-07
9.23167e-06
7.68519e-07
9.24117e-06
1.02355e-06
9.24225e-06
1.24944e-06
9.23421e-06
1.44203e-06
9.21689e-06
1.59889e-06
9.19057e-06
1.71933e-06
9.15556e-06
1.80428e-06
9.11134e-06
1.8555e-06
9.05684e-06
1.87374e-06
8.99384e-06
1.85864e-06
8.92509e-06
1.81278e-06
8.85383e-06
1.73819e-06
8.78305e-06
1.63723e-06
8.71523e-06
1.51197e-06
8.65246e-06
1.36378e-06
8.59657e-06
1.19382e-06
8.5491e-06
1.00356e-06
8.51131e-06
7.95054e-07
8.48416e-06
5.7134e-07
8.46826e-06
3.36623e-07
8.46369e-06
9.69277e-08
8.46991e-06
-1.40048e-07
8.48603e-06
-3.6853e-07
8.51084e-06
-5.8304e-07
8.54288e-06
-7.78559e-07
8.58045e-06
-9.50785e-07
8.62167e-06
-1.09644e-06
8.66467e-06
-1.21363e-06
8.7078e-06
-1.30195e-06
8.74999e-06
-1.36235e-06
8.79128e-06
-1.39656e-06
8.83284e-06
-1.40375e-06
8.87414e-06
-1.37838e-06
8.91385e-06
-1.31927e-06
8.95161e-06
-1.2287e-06
8.98745e-06
-1.10904e-06
9.02148e-06
-9.6273e-07
9.0538e-06
-7.92475e-07
9.08435e-06
-6.01421e-07
9.11289e-06
-3.93435e-07
9.13876e-06
-1.73593e-07
9.1606e-06
5.07293e-08
9.17746e-06
2.70975e-07
9.18846e-06
4.8115e-07
9.19278e-06
6.75788e-07
9.18983e-06
8.50249e-07
9.17931e-06
1.00092e-06
9.1613e-06
1.12541e-06
9.13619e-06
1.22261e-06
9.10436e-06
1.29263e-06
9.06556e-06
1.33632e-06
9.01907e-06
1.3538e-06
8.96614e-06
1.3443e-06
8.90884e-06
1.30945e-06
8.84973e-06
1.25081e-06
8.79126e-06
1.17046e-06
8.73552e-06
1.07056e-06
8.6843e-06
9.52786e-07
8.6391e-06
8.18644e-07
8.60116e-06
6.69692e-07
8.57146e-06
5.07796e-07
8.55071e-06
3.35403e-07
8.53933e-06
1.55871e-07
8.5373e-06
-2.58046e-08
8.54411e-06
-2.04284e-07
8.55897e-06
-3.75368e-07
8.58087e-06
-5.34976e-07
8.60853e-06
-6.79338e-07
8.64054e-06
-8.05344e-07
8.6754e-06
-9.10834e-07
8.71173e-06
-9.94709e-07
8.74838e-06
-1.0569e-06
8.78479e-06
-1.09816e-06
8.8213e-06
-1.11925e-06
8.85834e-06
-1.1179e-06
8.89501e-06
-1.09107e-06
8.93042e-06
-1.03892e-06
-9.62995e-07
9.05609e-06
6.0702e-07
9.09453e-06
9.69447e-07
9.12742e-06
1.29319e-06
9.15229e-06
1.57299e-06
9.16724e-06
1.80654e-06
9.171e-06
1.99406e-06
9.16308e-06
2.13776e-06
9.1437e-06
2.24108e-06
9.11305e-06
2.30776e-06
9.07085e-06
2.3407e-06
9.0178e-06
2.34152e-06
8.95682e-06
2.31043e-06
8.89256e-06
2.24496e-06
8.82845e-06
2.14495e-06
8.76726e-06
2.00961e-06
8.71146e-06
1.83762e-06
8.66319e-06
1.62873e-06
8.6242e-06
1.38451e-06
8.59579e-06
1.10861e-06
8.57888e-06
8.06647e-07
8.57379e-06
4.86217e-07
8.57996e-06
1.57762e-07
8.5961e-06
-1.66652e-07
8.62045e-06
-4.78e-07
8.65099e-06
-7.68634e-07
8.68562e-06
-1.03198e-06
8.72236e-06
-1.26291e-06
8.75927e-06
-1.45792e-06
8.79463e-06
-1.61473e-06
8.82714e-06
-1.73301e-06
8.85534e-06
-1.81379e-06
8.87783e-06
-1.86008e-06
8.89498e-06
-1.87701e-06
8.91041e-06
-1.86298e-06
8.92122e-06
-1.80256e-06
8.92962e-06
-1.70454e-06
8.9375e-06
-1.5708e-06
8.94617e-06
-1.40223e-06
8.95664e-06
-1.20036e-06
8.96954e-06
-9.67497e-07
8.98515e-06
-7.07194e-07
9.00336e-06
-4.24613e-07
9.02354e-06
-1.26981e-07
9.04402e-06
1.75197e-07
9.06341e-06
4.70755e-07
9.08019e-06
7.51735e-07
9.0929e-06
1.01084e-06
9.10016e-06
1.24217e-06
9.1009e-06
1.44129e-06
9.09454e-06
1.60525e-06
9.08103e-06
1.73285e-06
9.06073e-06
1.82457e-06
9.03389e-06
1.88234e-06
8.99922e-06
1.9084e-06
8.95558e-06
1.90227e-06
8.90537e-06
1.86299e-06
8.85205e-06
1.7915e-06
8.79825e-06
1.69103e-06
8.74619e-06
1.56403e-06
8.69787e-06
1.41209e-06
8.65505e-06
1.23665e-06
8.6192e-06
1.0394e-06
8.59152e-06
8.22736e-07
8.57285e-06
5.90012e-07
8.56364e-06
3.45833e-07
8.56382e-06
9.67485e-08
8.57271e-06
-1.48943e-07
8.58939e-06
-3.85212e-07
8.61267e-06
-6.06319e-07
8.64117e-06
-8.07051e-07
8.67334e-06
-9.82964e-07
8.70761e-06
-1.13071e-06
8.74233e-06
-1.24834e-06
8.77578e-06
-1.33541e-06
8.80669e-06
-1.39325e-06
8.83488e-06
-1.42475e-06
8.86221e-06
-1.43108e-06
8.88912e-06
-1.40528e-06
8.91316e-06
-1.34332e-06
8.93497e-06
-1.25051e-06
8.95515e-06
-1.12922e-06
8.97426e-06
-9.81839e-07
8.99273e-06
-8.10944e-07
9.01082e-06
-6.19509e-07
9.02856e-06
-4.11177e-07
9.04564e-06
-1.90674e-07
9.06114e-06
3.52331e-08
9.07417e-06
2.57943e-07
9.08389e-06
4.71431e-07
9.08944e-06
6.70238e-07
9.09008e-06
8.49606e-07
9.08531e-06
1.0057e-06
9.07493e-06
1.13579e-06
9.05911e-06
1.23843e-06
9.0383e-06
1.31344e-06
9.01276e-06
1.36186e-06
8.98157e-06
1.38499e-06
8.94387e-06
1.382e-06
8.90121e-06
1.35212e-06
8.85635e-06
1.29566e-06
8.81145e-06
1.21536e-06
8.76837e-06
1.11364e-06
8.72877e-06
9.9239e-07
8.69405e-06
8.53365e-07
8.66538e-06
6.98361e-07
8.64368e-06
5.29496e-07
8.62959e-06
3.49489e-07
8.62344e-06
1.6202e-07
8.62507e-06
-2.7427e-08
8.6339e-06
-2.13116e-07
8.64915e-06
-3.90622e-07
8.66985e-06
-5.55673e-07
8.69484e-06
-7.04324e-07
8.72282e-06
-8.33333e-07
8.75244e-06
-9.40453e-07
8.78232e-06
-1.02459e-06
8.81131e-06
-1.08589e-06
8.83875e-06
-1.1256e-06
8.86509e-06
-1.1456e-06
8.89162e-06
-1.14442e-06
8.91716e-06
-1.11662e-06
8.94079e-06
-1.06255e-06
-9.84703e-07
8.85911e-06
8.90081e-06
8.94063e-06
8.97565e-06
9.00345e-06
9.02219e-06
9.03098e-06
9.02999e-06
9.02015e-06
9.00212e-06
8.97439e-06
8.93559e-06
8.89348e-06
8.85085e-06
2.18757e-06
8.81014e-06
2.05032e-06
8.77369e-06
1.87407e-06
8.74336e-06
1.65905e-06
8.72059e-06
1.40727e-06
8.70652e-06
1.12268e-06
8.70185e-06
8.11319e-07
8.70662e-06
4.81445e-07
8.72001e-06
1.44381e-07
8.74044e-06
-1.87091e-07
8.76609e-06
-5.0365e-07
8.79488e-06
-7.9742e-07
8.82464e-06
-1.06174e-06
8.85333e-06
-1.29161e-06
8.87914e-06
-1.48373e-06
8.90094e-06
-1.63652e-06
8.91851e-06
-1.75058e-06
8.93105e-06
-1.82633e-06
8.93831e-06
-1.86734e-06
8.93911e-06
-1.87781e-06
8.93228e-06
-1.85615e-06
8.92122e-06
-1.79151e-06
8.90811e-06
-1.69143e-06
8.89507e-06
-1.55776e-06
8.88388e-06
-1.39105e-06
8.87583e-06
-1.19231e-06
8.87183e-06
-9.63503e-07
8.87252e-06
-7.0788e-07
8.87813e-06
-4.30223e-07
8.88837e-06
-1.3722e-07
8.90198e-06
1.61586e-07
8.91767e-06
4.55068e-07
8.93389e-06
7.35506e-07
8.94913e-06
9.95604e-07
8.96184e-06
1.22947e-06
8.97069e-06
1.43243e-06
8.97472e-06
1.60122e-06
8.97344e-06
1.73413e-06
8.96704e-06
1.83097e-06
8.9562e-06
1.89319e-06
8.94068e-06
1.92392e-06
8.91669e-06
1.92626e-06
8.88397e-06
1.89571e-06
8.84861e-06
1.82686e-06
8.81232e-06
1.72732e-06
8.77689e-06
1.59946e-06
8.74405e-06
1.44493e-06
8.71544e-06
1.26527e-06
8.69238e-06
1.06246e-06
8.6759e-06
8.39216e-07
8.66669e-06
5.99218e-07
8.66503e-06
3.47491e-07
8.67054e-06
9.1236e-08
8.68244e-06
-1.60839e-07
8.69973e-06
-4.02502e-07
8.72113e-06
-6.27722e-07
8.74532e-06
-8.31242e-07
8.77104e-06
-1.00868e-06
8.79709e-06
-1.15677e-06
8.82236e-06
-1.27361e-06
8.84548e-06
-1.35853e-06
8.86503e-06
-1.4128e-06
8.88019e-06
-1.43991e-06
8.89333e-06
-1.44422e-06
8.90451e-06
-1.41646e-06
8.91197e-06
-1.35078e-06
8.91722e-06
-1.25576e-06
8.92138e-06
-1.13338e-06
8.92535e-06
-9.85812e-07
8.92985e-06
-8.15447e-07
8.9354e-06
-6.25054e-07
8.94226e-06
-4.18044e-07
8.95043e-06
-1.98842e-07
8.95938e-06
2.62862e-08
8.9683e-06
2.49026e-07
8.9764e-06
4.6333e-07
8.9828e-06
6.63839e-07
8.98662e-06
8.45779e-07
8.9872e-06
1.00512e-06
8.98411e-06
1.13889e-06
8.97726e-06
1.24528e-06
8.96701e-06
1.32368e-06
8.95401e-06
1.37486e-06
8.93793e-06
1.40107e-06
8.91581e-06
1.40412e-06
8.88686e-06
1.38106e-06
8.8563e-06
1.32622e-06
8.82548e-06
1.24619e-06
8.79585e-06
1.14326e-06
8.76879e-06
1.01945e-06
8.74554e-06
8.76616e-07
8.72715e-06
7.1675e-07
8.71442e-06
5.42221e-07
8.70788e-06
3.56037e-07
8.70767e-06
1.62222e-07
8.71343e-06
-3.31855e-08
8.7245e-06
-2.24186e-07
8.74007e-06
-4.06183e-07
8.75919e-06
-5.74794e-07
8.78088e-06
-7.26015e-07
8.80412e-06
-8.56574e-07
8.82783e-06
-9.64161e-07
8.85083e-06
-1.04759e-06
8.87196e-06
-1.10702e-06
8.89027e-06
-1.14391e-06
8.90584e-06
-1.16117e-06
8.92155e-06
-1.16013e-06
8.93554e-06
-1.13061e-06
8.94679e-06
-1.0738e-06
-9.93999e-07
8.88083e-06
8.86172e-06
8.84589e-06
8.83475e-06
8.82942e-06
8.83071e-06
8.83901e-06
8.8541e-06
8.87468e-06
8.89907e-06
8.92549e-06
8.95185e-06
8.97607e-06
8.99619e-06
9.01075e-06
9.01892e-06
9.0205e-06
9.01591e-06
9.0055e-06
8.98691e-06
8.95753e-06
8.92461e-06
8.89047e-06
8.85712e-06
8.82655e-06
8.80045e-06
8.7801e-06
8.76637e-06
8.75975e-06
8.76021e-06
8.76689e-06
8.77858e-06
8.7938e-06
8.81092e-06
8.82832e-06
8.84456e-06
8.85849e-06
8.86937e-06
8.87679e-06
8.88068e-06
8.88096e-06
8.87534e-06
8.86136e-06
8.84469e-06
8.82641e-06
8.80812e-06
8.79152e-06
8.778e-06
8.76861e-06
8.76414e-06
8.76509e-06
8.77152e-06
8.78275e-06
8.79788e-06
8.81583e-06
8.83517e-06
8.85463e-06
8.87312e-06
8.88974e-06
8.9038e-06
8.91486e-06
8.92261e-06
8.92638e-06
8.9255e-06
8.91881e-06
8.90923e-06
8.89782e-06
8.88593e-06
8.8748e-06
8.8654e-06
8.85849e-06
8.85459e-06
8.85391e-06
8.85624e-06
8.86092e-06
8.86719e-06
8.87416e-06
8.8809e-06
8.88661e-06
8.89068e-06
8.89283e-06
8.89302e-06
8.89141e-06
8.88797e-06
8.88058e-06
8.86635e-06
8.8506e-06
8.83438e-06
8.81874e-06
8.80483e-06
8.79373e-06
8.78633e-06
8.78325e-06
8.78483e-06
8.79104e-06
8.80125e-06
8.81473e-06
8.83059e-06
8.84788e-06
8.86573e-06
8.88332e-06
8.89997e-06
8.915e-06
8.92768e-06
8.93727e-06
8.94344e-06
8.94797e-06
8.9492e-06
8.94772e-06
2.90693e-07
-2.22262e-08
3.17004e-07
-2.63104e-08
3.45499e-07
-2.84952e-08
3.74354e-07
-2.88549e-08
4.01922e-07
-2.75681e-08
4.26812e-07
-2.48899e-08
4.47915e-07
-2.1103e-08
4.64433e-07
-1.65178e-08
4.76008e-07
-1.15751e-08
4.82799e-07
-6.79124e-09
4.85418e-07
-2.61848e-09
4.84745e-07
6.72291e-10
4.81852e-07
2.89324e-09
4.77656e-07
4.19577e-09
4.73146e-07
4.51034e-09
4.6926e-07
3.88597e-09
4.66738e-07
2.52218e-09
4.66164e-07
5.74302e-10
4.67292e-07
-1.12838e-09
4.7051e-07
-3.21795e-09
4.75755e-07
-5.2454e-09
4.82702e-07
-6.94672e-09
4.9086e-07
-8.15815e-09
4.99751e-07
-8.89126e-09
5.08974e-07
-9.2228e-09
5.18082e-07
-9.10801e-09
5.26529e-07
-8.44709e-09
5.3378e-07
-7.25065e-09
5.39297e-07
-5.51737e-09
5.42626e-07
-3.32829e-09
5.43481e-07
-8.55304e-10
5.42209e-07
1.27194e-09
5.38682e-07
3.52668e-09
5.33151e-07
5.53146e-09
5.25986e-07
7.16534e-09
5.17601e-07
8.38446e-09
5.08464e-07
9.13665e-09
4.99048e-07
9.41617e-09
4.89772e-07
9.27664e-09
4.80996e-07
8.77605e-09
4.73026e-07
7.96918e-09
4.66063e-07
6.96372e-09
4.60202e-07
5.86065e-09
4.55472e-07
4.73004e-09
4.51844e-07
3.62839e-09
4.49229e-07
2.61497e-09
4.4747e-07
1.75861e-09
4.46346e-07
1.12434e-09
4.45589e-07
7.56883e-10
4.44954e-07
6.34467e-10
4.44221e-07
7.33199e-10
4.43211e-07
1.00975e-09
4.41803e-07
1.40864e-09
4.39926e-07
1.8766e-09
4.3758e-07
2.34563e-09
4.34828e-07
2.75215e-09
4.31774e-07
3.05455e-09
4.28553e-07
3.22042e-09
4.25324e-07
3.22929e-09
4.22255e-07
3.06922e-09
4.19518e-07
2.73673e-09
4.17268e-07
2.25043e-09
4.15627e-07
1.64083e-09
4.14673e-07
9.5361e-10
4.14432e-07
2.4116e-10
4.14895e-07
-4.62467e-10
4.16005e-07
-1.11077e-09
4.17691e-07
-1.68592e-09
4.19869e-07
-2.17764e-09
4.22461e-07
-2.59225e-09
4.25352e-07
-2.89057e-09
4.28379e-07
-3.02778e-09
4.31336e-07
-2.957e-09
4.33978e-07
-2.64178e-09
4.36109e-07
-2.13063e-09
4.37615e-07
-1.50601e-09
4.38394e-07
-7.79143e-10
4.38452e-07
-5.81011e-11
4.37762e-07
6.89869e-10
4.36376e-07
1.38586e-09
4.34409e-07
1.9677e-09
4.32014e-07
2.39431e-09
4.29393e-07
2.62166e-09
4.26767e-07
2.62543e-09
4.24356e-07
2.41104e-09
4.22348e-07
2.00806e-09
4.20891e-07
1.45742e-09
4.20099e-07
7.9221e-10
4.2002e-07
7.88561e-11
4.20562e-07
-5.42673e-10
4.21712e-07
-1.14946e-09
4.23361e-07
-1.64956e-09
4.25384e-07
-2.02277e-09
4.27634e-07
-2.25012e-09
4.29958e-07
-2.32361e-09
4.32232e-07
-2.27416e-09
4.34361e-07
-2.12898e-09
4.36288e-07
-1.92715e-09
4.38007e-07
-1.71862e-09
4.39557e-07
-1.55053e-09
4.41019e-07
-1.4613e-09
4.42495e-07
-1.47595e-09
4.44104e-07
-1.60908e-09
4.45971e-07
-1.8668e-09
4.48212e-07
-2.2415e-09
4.50923e-07
-2.71122e-09
4.54168e-07
-3.24428e-09
4.57977e-07
-3.80917e-09
4.62353e-07
-4.37647e-09
4.67274e-07
-4.921e-09
4.72695e-07
-5.4213e-09
4.78555e-07
-5.85912e-09
4.84775e-07
-6.21997e-09
4.91262e-07
-6.4871e-09
4.97906e-07
-6.64408e-09
5.04583e-07
-6.67701e-09
5.11159e-07
-6.57578e-09
5.17497e-07
-6.33843e-09
5.23476e-07
-5.97904e-09
5.29002e-07
-5.52611e-09
5.34015e-07
-5.0134e-09
5.38487e-07
-4.47176e-09
-3.92687e-09
1.48729e-06
-5.64523e-08
1.52467e-06
-6.36873e-08
1.56329e-06
-6.712e-08
1.60132e-06
-6.6889e-08
1.6371e-06
-6.33399e-08
1.66928e-06
-5.70697e-08
1.69685e-06
-4.86799e-08
1.71913e-06
-3.87922e-08
1.73581e-06
-2.82554e-08
1.74716e-06
-1.81384e-08
1.75389e-06
-9.35506e-09
1.75697e-06
-2.40434e-09
1.75776e-06
2.10306e-09
1.75691e-06
5.04342e-09
1.75549e-06
5.93593e-09
1.75441e-06
4.96589e-09
1.75435e-06
2.57844e-09
1.75578e-06
-8.55454e-10
1.75907e-06
-4.42144e-09
1.76403e-06
-8.17729e-09
1.77054e-06
-1.17494e-08
1.77827e-06
-1.4683e-08
1.78666e-06
-1.6548e-08
1.79516e-06
-1.73851e-08
1.80342e-06
-1.74876e-08
1.81108e-06
-1.67694e-08
1.81764e-06
-1.50025e-08
1.82262e-06
-1.22363e-08
1.82556e-06
-8.4546e-09
1.82594e-06
-3.71011e-09
1.82381e-06
1.28005e-09
1.81874e-06
6.33929e-09
1.81126e-06
1.10025e-08
1.80178e-06
1.50117e-08
1.79072e-06
1.82266e-08
1.77846e-06
2.06506e-08
1.76545e-06
2.21464e-08
1.75216e-06
2.26981e-08
1.73902e-06
2.24183e-08
1.72636e-06
2.1434e-08
1.71444e-06
1.98925e-08
1.70343e-06
1.79739e-08
1.69344e-06
1.58553e-08
1.68449e-06
1.36803e-08
1.67655e-06
1.15652e-08
1.66953e-06
9.63e-09
1.66328e-06
8.01472e-09
1.65756e-06
6.83901e-09
1.65218e-06
6.14414e-09
1.64689e-06
5.92014e-09
1.64151e-06
6.11609e-09
1.63587e-06
6.6479e-09
1.62986e-06
7.42222e-09
1.6234e-06
8.33544e-09
1.6165e-06
9.24335e-09
1.60923e-06
1.0021e-08
1.60171e-06
1.05744e-08
1.5941e-06
1.0833e-08
1.58656e-06
1.07676e-08
1.57926e-06
1.03693e-08
1.57236e-06
9.63232e-09
1.56604e-06
8.57624e-09
1.56042e-06
7.26151e-09
1.55559e-06
5.78383e-09
1.55158e-06
4.25099e-09
1.54836e-06
2.75286e-09
1.54592e-06
1.32655e-09
1.54414e-06
1.01127e-10
1.54292e-06
-9.60717e-10
1.54224e-06
-1.91255e-09
1.542e-06
-2.6533e-09
1.54203e-06
-3.05737e-09
1.54213e-06
-3.0529e-09
1.54203e-06
-2.54576e-09
1.5415e-06
-1.59289e-09
1.54044e-06
-4.47876e-10
1.53882e-06
8.33348e-10
1.53657e-06
2.19452e-09
1.53373e-06
3.5331e-09
1.53036e-06
4.75395e-09
1.52659e-06
5.73612e-09
1.5226e-06
6.38768e-09
1.51859e-06
6.62581e-09
1.51481e-06
6.41443e-09
1.51144e-06
5.77466e-09
1.50868e-06
4.76613e-09
1.50668e-06
3.46512e-09
1.50551e-06
1.96001e-09
1.50523e-06
3.54643e-10
1.50585e-06
-1.16249e-09
1.50725e-06
-2.54489e-09
1.50928e-06
-3.6845e-09
1.51183e-06
-4.56537e-09
1.51472e-06
-5.1433e-09
1.51777e-06
-5.37706e-09
1.52086e-06
-5.36444e-09
1.52388e-06
-5.1493e-09
1.52677e-06
-4.81073e-09
1.52951e-06
-4.45836e-09
1.53215e-06
-4.18961e-09
1.53477e-06
-4.0839e-09
1.53748e-06
-4.19179e-09
1.54042e-06
-4.54162e-09
1.54369e-06
-5.14528e-09
1.54744e-06
-5.98614e-09
1.55174e-06
-7.01648e-09
1.55666e-06
-8.16336e-09
1.56222e-06
-9.36093e-09
1.56839e-06
-1.05467e-08
1.57513e-06
-1.16699e-08
1.5824e-06
-1.26892e-08
1.59011e-06
-1.35681e-08
1.59818e-06
-1.42849e-08
1.60649e-06
-1.48056e-08
1.61495e-06
-1.50963e-08
1.6234e-06
-1.51292e-08
1.63171e-06
-1.48856e-08
1.63973e-06
-1.43593e-08
1.64733e-06
-1.35796e-08
1.65442e-06
-1.26107e-08
1.66093e-06
-1.15257e-08
1.66685e-06
-1.039e-08
-9.25694e-09
3.15625e-06
-8.26755e-08
3.18563e-06
-9.30642e-08
3.21678e-06
-9.82637e-08
3.24821e-06
-9.83233e-08
3.27841e-06
-9.35424e-08
3.30616e-06
-8.48178e-08
3.33047e-06
-7.29852e-08
3.35053e-06
-5.88543e-08
3.36581e-06
-4.35395e-08
3.37622e-06
-2.85415e-08
3.38211e-06
-1.52453e-08
3.3841e-06
-4.40078e-09
3.38233e-06
3.87305e-09
3.37773e-06
9.64084e-09
3.37136e-06
1.23066e-08
3.36436e-06
1.19714e-08
3.35776e-06
9.18146e-09
3.3522e-06
4.70288e-09
3.34809e-06
-3.13011e-10
3.34576e-06
-5.85061e-09
3.34551e-06
-1.14991e-08
3.34722e-06
-1.63879e-08
3.35028e-06
-1.96104e-08
3.35408e-06
-2.1183e-08
3.35819e-06
-2.16044e-08
3.36241e-06
-2.09848e-08
3.36632e-06
-1.89156e-08
3.36906e-06
-1.49719e-08
3.36988e-06
-9.27432e-09
3.36795e-06
-1.77922e-09
3.36272e-06
6.51009e-09
3.35418e-06
1.48776e-08
3.34274e-06
2.24438e-08
3.32886e-06
2.88872e-08
3.31316e-06
3.39256e-08
3.29594e-06
3.78703e-08
3.27775e-06
4.03404e-08
3.25916e-06
4.12859e-08
3.24067e-06
4.09044e-08
3.22271e-06
3.93986e-08
3.20558e-06
3.70249e-08
3.1895e-06
3.40508e-08
3.17463e-06
3.07235e-08
3.16103e-06
2.7284e-08
3.14864e-06
2.39524e-08
3.13735e-06
2.09187e-08
3.12698e-06
1.83875e-08
3.11727e-06
1.65452e-08
3.10796e-06
1.54547e-08
3.09876e-06
1.51189e-08
3.0894e-06
1.54794e-08
3.07965e-06
1.63971e-08
3.06935e-06
1.77239e-08
3.05837e-06
1.9315e-08
3.04672e-06
2.08919e-08
3.03451e-06
2.22384e-08
3.0219e-06
2.31815e-08
3.00914e-06
2.35873e-08
2.99647e-06
2.34428e-08
2.98407e-06
2.27714e-08
2.97215e-06
2.15539e-08
2.96092e-06
1.98026e-08
2.95056e-06
1.76199e-08
2.94117e-06
1.51745e-08
2.93276e-06
1.26609e-08
2.92527e-06
1.02467e-08
2.91857e-06
8.0214e-09
2.91265e-06
6.02373e-09
2.90745e-06
4.2327e-09
2.9029e-06
2.64499e-09
2.89889e-06
1.34998e-09
2.89533e-06
5.06957e-10
2.89196e-06
3.13054e-10
2.88845e-06
9.63655e-10
2.88457e-06
2.29554e-09
2.88015e-06
3.97093e-09
2.87518e-06
5.79806e-09
2.86968e-06
7.69912e-09
2.86363e-06
9.58106e-09
2.8571e-06
1.12856e-08
2.85021e-06
1.26225e-08
2.84316e-06
1.34359e-08
2.83617e-06
1.36221e-08
2.82945e-06
1.31333e-08
2.82323e-06
1.19911e-08
2.81772e-06
1.02808e-08
2.81306e-06
8.11787e-09
2.80939e-06
5.63935e-09
2.80672e-06
3.01878e-09
2.80507e-06
4.86772e-10
2.80427e-06
-1.74411e-09
2.80421e-06
-3.61891e-09
2.80472e-06
-5.07502e-09
2.80564e-06
-6.06815e-09
2.8068e-06
-6.5372e-09
2.80802e-06
-6.58119e-09
2.80915e-06
-6.28231e-09
2.81012e-06
-5.77934e-09
2.81092e-06
-5.25513e-09
2.8116e-06
-4.87792e-09
2.81228e-06
-4.75873e-09
2.81305e-06
-4.96133e-09
2.81404e-06
-5.5355e-09
2.81541e-06
-6.50989e-09
2.81728e-06
-7.86461e-09
2.81979e-06
-9.5231e-09
2.82298e-06
-1.13566e-08
2.82688e-06
-1.32524e-08
2.83144e-06
-1.51115e-08
2.83663e-06
-1.68584e-08
2.84238e-06
-1.84361e-08
2.84859e-06
-1.97854e-08
2.85522e-06
-2.09074e-08
2.86215e-06
-2.17417e-08
2.86928e-06
-2.22272e-08
2.87647e-06
-2.23143e-08
2.88356e-06
-2.19723e-08
2.89037e-06
-2.1178e-08
2.89677e-06
-1.99752e-08
2.90264e-06
-1.84806e-08
2.90793e-06
-1.68187e-08
2.91264e-06
-1.50932e-08
-1.33862e-08
5.01903e-06
-8.92109e-08
5.02999e-06
-1.04027e-07
5.04491e-06
-1.13183e-07
5.06265e-06
-1.16066e-07
5.08218e-06
-1.1307e-07
5.10234e-06
-1.04983e-07
5.12182e-06
-9.24619e-08
5.13921e-06
-7.62443e-08
5.15329e-06
-5.76206e-08
5.16316e-06
-3.84155e-08
5.16849e-06
-2.05763e-08
5.16935e-06
-5.25821e-09
5.16615e-06
7.07687e-09
5.15947e-06
1.63199e-08
5.1499e-06
2.18774e-08
5.13786e-06
2.40122e-08
5.12397e-06
2.30648e-08
5.10841e-06
2.02671e-08
5.09282e-06
1.52773e-08
5.0783e-06
8.67276e-09
5.06531e-06
1.48501e-09
5.05387e-06
-4.945e-09
5.04408e-06
-9.81688e-09
5.03595e-06
-1.30549e-08
5.02946e-06
-1.51213e-08
5.02476e-06
-1.6284e-08
5.02213e-06
-1.62866e-08
5.02138e-06
-1.42216e-08
5.02157e-06
-9.46148e-09
5.02063e-06
-8.36339e-10
5.0171e-06
1.00418e-08
5.01038e-06
2.15917e-08
5.00048e-06
3.23486e-08
4.98743e-06
4.19385e-08
4.97103e-06
5.0323e-08
4.9514e-06
5.75037e-08
4.92906e-06
6.2674e-08
4.90481e-06
6.55431e-08
4.87941e-06
6.62977e-08
4.85377e-06
6.50448e-08
4.8286e-06
6.21937e-08
4.80441e-06
5.82364e-08
4.78164e-06
5.34997e-08
4.76059e-06
4.83303e-08
4.74146e-06
4.30834e-08
4.7243e-06
3.80773e-08
4.70897e-06
3.37157e-08
4.69511e-06
3.04064e-08
4.68236e-06
2.82006e-08
4.67034e-06
2.71412e-08
4.65862e-06
2.72042e-08
4.6468e-06
2.82106e-08
4.63448e-06
3.00462e-08
4.62113e-06
3.26632e-08
4.60661e-06
3.54173e-08
4.59092e-06
3.79225e-08
4.57425e-06
3.98553e-08
4.55692e-06
4.09168e-08
4.53924e-06
4.11184e-08
4.52153e-06
4.04854e-08
4.50414e-06
3.89393e-08
4.48747e-06
3.64803e-08
4.47183e-06
3.32616e-08
4.45745e-06
2.95478e-08
4.44443e-06
2.56782e-08
4.43272e-06
2.19586e-08
4.4222e-06
1.85412e-08
4.41275e-06
1.54723e-08
4.40428e-06
1.27065e-08
4.39669e-06
1.02386e-08
4.38989e-06
8.14263e-09
4.38375e-06
6.65488e-09
4.37783e-06
6.22839e-09
4.37159e-06
7.20673e-09
4.36463e-06
9.24868e-09
4.35688e-06
1.17291e-08
4.34837e-06
1.43012e-08
4.33917e-06
1.69039e-08
4.32927e-06
1.94792e-08
4.31876e-06
2.1792e-08
4.30783e-06
2.35529e-08
4.29674e-06
2.45277e-08
4.28575e-06
2.46103e-08
4.27513e-06
2.37523e-08
4.26515e-06
2.19799e-08
4.25602e-06
1.9409e-08
4.24793e-06
1.62103e-08
4.24097e-06
1.25977e-08
4.23517e-06
8.81125e-09
4.23052e-06
5.1434e-09
4.2269e-06
1.87355e-09
4.2241e-06
-8.20507e-10
4.22187e-06
-2.83876e-09
4.21996e-06
-4.1619e-09
4.21822e-06
-4.79524e-09
4.21645e-06
-4.81696e-09
4.21453e-06
-4.35532e-09
4.21235e-06
-3.6066e-09
4.20992e-06
-2.8177e-09
4.2073e-06
-2.2667e-09
4.20466e-06
-2.11393e-09
4.20211e-06
-2.41354e-09
4.1998e-06
-3.22249e-09
4.19789e-06
-4.60483e-09
4.19657e-06
-6.54132e-09
4.19597e-06
-8.92532e-09
4.19616e-06
-1.15412e-08
4.19712e-06
-1.42193e-08
4.19884e-06
-1.6824e-08
4.20124e-06
-1.92611e-08
4.20426e-06
-2.14601e-08
4.20782e-06
-2.33452e-08
4.21182e-06
-2.49064e-08
4.21617e-06
-2.60906e-08
4.22078e-06
-2.68328e-08
4.22552e-06
-2.70577e-08
4.23024e-06
-2.66962e-08
4.23473e-06
-2.56599e-08
4.23875e-06
-2.40024e-08
4.2422e-06
-2.19315e-08
4.24503e-06
-1.96418e-08
4.24722e-06
-1.72835e-08
-1.49744e-08
6.5051e-06
-7.76305e-08
6.49958e-06
-9.85045e-08
6.50071e-06
-1.14318e-07
6.50845e-06
-1.23806e-07
6.5227e-06
-1.27314e-07
6.54343e-06
-1.25717e-07
6.57049e-06
-1.19524e-07
6.60249e-06
-1.08243e-07
6.63696e-06
-9.20917e-08
6.6703e-06
-7.17578e-08
6.69881e-06
-4.90782e-08
6.72042e-06
-2.68757e-08
6.73474e-06
-7.23795e-09
6.74176e-06
9.29429e-09
6.742e-06
2.16397e-08
6.73582e-06
3.0198e-08
6.72412e-06
3.47606e-08
6.70828e-06
3.61125e-08
6.68951e-06
3.40405e-08
6.66961e-06
2.85749e-08
6.65028e-06
2.08189e-08
6.63217e-06
1.31608e-08
6.61531e-06
7.04736e-09
6.5989e-06
3.35233e-09
6.58279e-06
9.89687e-10
6.56731e-06
-8.03877e-10
6.55325e-06
-2.22858e-09
6.54138e-06
-2.34939e-09
6.53083e-06
1.08521e-09
6.52005e-06
9.94366e-09
6.5073e-06
2.279e-08
6.49215e-06
3.67465e-08
6.47562e-06
4.88723e-08
6.45836e-06
5.91994e-08
6.43968e-06
6.90037e-08
6.41902e-06
7.81681e-08
6.39668e-06
8.50106e-08
6.37284e-06
8.93838e-08
6.34761e-06
9.15278e-08
6.32164e-06
9.10154e-08
6.2957e-06
8.81366e-08
6.27061e-06
8.33192e-08
6.24725e-06
7.68684e-08
6.22624e-06
6.93322e-08
6.20795e-06
6.13778e-08
6.19234e-06
5.36831e-08
6.17913e-06
4.6933e-08
6.16781e-06
4.17247e-08
6.15783e-06
3.81791e-08
6.14864e-06
3.63303e-08
6.13937e-06
3.64786e-08
6.12917e-06
3.84015e-08
6.11742e-06
4.17962e-08
6.10364e-06
4.64521e-08
6.08771e-06
5.13466e-08
6.06972e-06
5.59064e-08
6.04998e-06
5.95961e-08
6.02929e-06
6.16055e-08
6.00816e-06
6.22468e-08
5.98686e-06
6.17882e-08
5.9658e-06
6.00019e-08
5.9455e-06
5.67789e-08
5.92643e-06
5.23329e-08
5.90893e-06
4.70447e-08
5.89308e-06
4.15285e-08
5.87866e-06
3.63798e-08
5.86547e-06
3.17355e-08
5.85338e-06
2.75557e-08
5.84248e-06
2.36077e-08
5.83284e-06
1.98858e-08
5.82452e-06
1.64567e-08
5.81745e-06
1.37252e-08
5.81109e-06
1.25865e-08
5.80447e-06
1.38321e-08
5.7969e-06
1.68117e-08
5.78831e-06
2.03225e-08
5.77884e-06
2.37741e-08
5.76847e-06
2.72759e-08
5.75698e-06
3.09693e-08
5.74432e-06
3.44499e-08
5.73063e-06
3.72419e-08
5.71628e-06
3.88766e-08
5.70171e-06
3.91848e-08
5.68738e-06
3.80769e-08
5.67372e-06
3.56403e-08
5.66106e-06
3.20727e-08
5.64964e-06
2.76272e-08
5.63962e-06
2.26145e-08
5.63109e-06
1.73457e-08
5.62394e-06
1.22955e-08
5.61793e-06
7.88512e-09
5.61273e-06
4.37897e-09
5.60801e-06
1.87855e-09
5.60351e-06
3.41187e-10
5.59899e-06
-2.76139e-10
5.59425e-06
-7.97804e-11
5.58905e-06
8.39428e-10
5.58327e-06
2.18181e-09
5.57683e-06
3.6228e-09
5.56994e-06
4.61833e-09
5.56292e-06
4.90695e-09
5.55601e-06
4.49864e-09
5.5494e-06
3.38003e-09
5.54341e-06
1.38912e-09
5.53826e-06
-1.38769e-09
5.53405e-06
-4.72212e-09
5.53085e-06
-8.33259e-09
5.52863e-06
-1.19991e-08
5.52734e-06
-1.55363e-08