/*--------------------------------*- C++ -*----------------------------------*\
| =========                 |                                                 |
| \\      /  F ield         | OpenFOAM: The Open Source CFD Toolbox           |
|  \\    /   O peration     | Version:  2206                                  |
|   \\  /    A nd           | Website:  www.openfoam.com                      |
|    \\/     M anipulation  |                                                 |
\*---------------------------------------------------------------------------*/
FoamFile
{
    version     2.0;
    format      ascii;
    arch        "LSB;label=32;scalar=64";
    class       volVectorField;
    location    "18.0999";
    object      U;
}
// * * * * * * * * * * * * * * * * * * * * * * * * * * * * * * * * * * * * * //

dimensions      [0 1 -1 0 0 0 0];

internalField   nonuniform List<vector> 
3062
(
(1.89064 0.100266 0)
(1.89846 0.173893 0)
(1.904 0.239397 0)
(1.9069 0.295546 0)
(1.90694 0.34181 0)
(1.90403 0.378263 0)
(1.8982 0.405411 0)
(1.88952 0.42404 0)
(1.87747 0.434928 0)
(1.8622 0.438552 0)
(1.84428 0.43621 0)
(1.8243 0.428922 0)
(1.80314 0.416978 0)
(1.78167 0.400197 0)
(1.76069 0.378129 0)
(1.74088 0.350262 0)
(1.72276 0.316225 0)
(1.70676 0.275955 0)
(1.69326 0.22977 0)
(1.68254 0.17837 0)
(1.67484 0.122818 0)
(1.6703 0.0645336 0)
(1.6689 0.00536713 0)
(1.67045 -0.0527867 0)
(1.67469 -0.108513 0)
(1.68125 -0.160493 0)
(1.68971 -0.207584 0)
(1.69961 -0.248908 0)
(1.7105 -0.283856 0)
(1.72189 -0.312079 0)
(1.73331 -0.333535 0)
(1.7444 -0.348441 0)
(1.75502 -0.357046 0)
(1.76579 -0.358895 0)
(1.77643 -0.352842 0)
(1.78685 -0.338636 0)
(1.79703 -0.316498 0)
(1.80697 -0.28674 0)
(1.81675 -0.249738 0)
(1.82638 -0.206012 0)
(1.83584 -0.156299 0)
(1.84505 -0.101629 0)
(1.85383 -0.0434499 0)
(1.86181 0.0161138 0)
(1.86852 0.0745813 0)
(1.87364 0.130238 0)
(1.87689 0.181549 0)
(1.87803 0.227267 0)
(1.8769 0.266497 0)
(1.87344 0.298709 0)
(1.86769 0.323722 0)
(1.85982 0.341619 0)
(1.84971 0.352626 0)
(1.83699 0.356718 0)
(1.82229 0.35426 0)
(1.80591 0.34615 0)
(1.78851 0.333 0)
(1.7708 0.315288 0)
(1.7534 0.293362 0)
(1.73685 0.267431 0)
(1.7216 0.237637 0)
(1.70802 0.204143 0)
(1.69641 0.167206 0)
(1.68704 0.127239 0)
(1.68009 0.084849 0)
(1.67572 0.0408937 0)
(1.67395 -0.00335087 0)
(1.67471 -0.0467074 0)
(1.6778 -0.0881595 0)
(1.68299 -0.126738 0)
(1.68997 -0.161583 0)
(1.69838 -0.191993 0)
(1.70785 -0.217462 0)
(1.71798 -0.23772 0)
(1.72843 -0.252707 0)
(1.73895 -0.262478 0)
(1.74974 -0.266872 0)
(1.76079 -0.265199 0)
(1.77181 -0.257161 0)
(1.78271 -0.242855 0)
(1.79328 -0.222567 0)
(1.80344 -0.196705 0)
(1.81312 -0.165765 0)
(1.82228 -0.130347 0)
(1.83085 -0.0911855 0)
(1.8387 -0.0492341 0)
(1.8456 -0.00586678 0)
(1.85121 0.0371283 0)
(1.8553 0.0784539 0)
(1.85769 0.116976 0)
(1.85824 0.151729 0)
(1.85686 0.181965 0)
(1.85352 0.207184 0)
(1.84831 0.227126 0)
(1.84138 0.241739 0)
(1.83267 0.251072 0)
(1.82198 0.255024 0)
(1.80973 0.253722 0)
(1.79621 0.247753 0)
(1.7819 0.237572 0)
(1.76736 0.223598 0)
(1.75311 0.206204 0)
(1.73962 0.185671 0)
(1.72725 0.162221 0)
(1.71633 0.136067 0)
(1.7071 0.107465 0)
(1.69976 0.076758 0)
(1.69446 0.0444321 0)
(1.69128 0.0111874 0)
(1.69025 -0.0220117 0)
(1.69126 -0.0543607 0)
(1.69415 -0.0851065 0)
(1.69872 -0.113533 0)
(1.7047 -0.139011 0)
(1.71181 -0.161042 0)
(1.71974 -0.179293 0)
(1.7282 -0.193593 0)
(1.73694 -0.203896 0)
(1.74586 -0.210176 0)
(1.75514 -0.21215 0)
(1.76456 -0.209376 0)
(1.774 -0.201792 0)
(1.7833 -0.189504 0)
(1.84522 0.0915502 0)
(1.8534 0.166763 0)
(1.86019 0.2343 0)
(1.86512 0.292839 0)
(1.86781 0.341736 0)
(1.86802 0.380944 0)
(1.86562 0.410876 0)
(1.86067 0.432296 0)
(1.85312 0.44606 0)
(1.84253 0.45276 0)
(1.82933 0.452794 0)
(1.81401 0.447164 0)
(1.79728 0.436102 0)
(1.78 0.419374 0)
(1.76297 0.396648 0)
(1.74679 0.367543 0)
(1.73197 0.331787 0)
(1.71894 0.28939 0)
(1.70807 0.240737 0)
(1.69966 0.186603 0)
(1.69393 0.128132 0)
(1.69099 0.066872 0)
(1.69079 0.00485372 0)
(1.6931 -0.0559135 0)
(1.69762 -0.113927 0)
(1.70397 -0.167802 0)
(1.71172 -0.216353 0)
(1.72047 -0.258699 0)
(1.72978 -0.294193 0)
(1.73921 -0.322498 0)
(1.74836 -0.343633 0)
(1.75681 -0.357983 0)
(1.76426 -0.366091 0)
(1.77149 -0.367826 0)
(1.7784 -0.361546 0)
(1.78485 -0.346981 0)
(1.79086 -0.324533 0)
(1.79666 -0.29459 0)
(1.80243 -0.257512 0)
(1.80831 -0.213762 0)
(1.81434 -0.164018 0)
(1.82052 -0.10923 0)
(1.82677 -0.05073 0)
(1.83285 0.00953552 0)
(1.83835 0.0690727 0)
(1.84297 0.126103 0)
(1.84639 0.17907 0)
(1.84835 0.226674 0)
(1.84861 0.267935 0)
(1.84704 0.302225 0)
(1.84359 0.329275 0)
(1.83837 0.349131 0)
(1.83154 0.362089 0)
(1.82265 0.368406 0)
(1.81173 0.367869 0)
(1.79916 0.361125 0)
(1.78537 0.348745 0)
(1.77107 0.331175 0)
(1.75686 0.308825 0)
(1.74324 0.281984 0)
(1.73063 0.25087 0)
(1.7194 0.215711 0)
(1.70984 0.176823 0)
(1.70223 0.134672 0)
(1.69675 0.0899309 0)
(1.69352 0.0435334 0)
(1.69257 -0.00312429 0)
(1.69379 -0.0487514 0)
(1.697 -0.0922645 0)
(1.70194 -0.132635 0)
(1.70835 -0.168946 0)
(1.71587 -0.200445 0)
(1.72413 -0.226615 0)
(1.73276 -0.247214 0)
(1.7414 -0.262264 0)
(1.74975 -0.271984 0)
(1.758 -0.276466 0)
(1.76642 -0.27492 0)
(1.77462 -0.266762 0)
(1.78257 -0.252145 0)
(1.79013 -0.23147 0)
(1.79729 -0.205193 0)
(1.8041 -0.17382 0)
(1.81057 -0.13794 0)
(1.81669 -0.0982569 0)
(1.82243 -0.055671 0)
(1.82764 -0.0114223 0)
(1.83206 0.0327266 0)
(1.83547 0.0753929 0)
(1.83771 0.115429 0)
(1.83862 0.151826 0)
(1.83806 0.183774 0)
(1.83598 0.210701 0)
(1.83239 0.232286 0)
(1.82741 0.248442 0)
(1.82117 0.259286 0)
(1.8134 0.26491 0)
(1.80408 0.265083 0)
(1.79353 0.260164 0)
(1.78206 0.250565 0)
(1.77021 0.236666 0)
(1.7585 0.218874 0)
(1.74733 0.197532 0)
(1.73706 0.172927 0)
(1.728 0.145335 0)
(1.72038 0.115065 0)
(1.71442 0.0825158 0)
(1.71025 0.0482249 0)
(1.70796 0.0129599 0)
(1.70755 -0.0222073 0)
(1.7089 -0.056397 0)
(1.71187 -0.0888035 0)
(1.71625 -0.118658 0)
(1.72179 -0.145284 0)
(1.72819 -0.168163 0)
(1.73517 -0.186967 0)
(1.74245 -0.201563 0)
(1.74976 -0.211984 0)
(1.75694 -0.21835 0)
(1.7643 -0.220508 0)
(1.77171 -0.217824 0)
(1.779 -0.21012 0)
(1.78609 -0.197561 0)
(1.80259 0.0831006 0)
(1.81084 0.158972 0)
(1.81856 0.22771 0)
(1.82519 0.287938 0)
(1.83023 0.338909 0)
(1.8333 0.380434 0)
(1.83413 0.412824 0)
(1.83264 0.436731 0)
(1.82892 0.452913 0)
(1.82301 0.462153 0)
(1.81449 0.464808 0)
(1.804 0.461035 0)
(1.79188 0.45104 0)
(1.77897 0.434511 0)
(1.7661 0.411327 0)
(1.7538 0.381254 0)
(1.74255 0.344078 0)
(1.73281 0.299866 0)
(1.7249 0.249068 0)
(1.71911 0.192548 0)
(1.71562 0.131533 0)
(1.7145 0.0677131 0)
(1.71566 0.00330102 0)
(1.71882 -0.05958 0)
(1.72364 -0.119351 0)
(1.72972 -0.174583 0)
(1.73663 -0.224073 0)
(1.74399 -0.266974 0)
(1.75139 -0.302599 0)
(1.7585 -0.330635 0)
(1.76508 -0.351138 0)
(1.77081 -0.36456 0)
(1.77519 -0.37167 0)
(1.77889 -0.372787 0)
(1.78191 -0.36627 0)
(1.78409 -0.351006 0)
(1.78582 -0.328299 0)
(1.7874 -0.298317 0)
(1.78913 -0.261373 0)
(1.79123 -0.217889 0)
(1.79381 -0.16847 0)
(1.79694 -0.113996 0)
(1.80061 -0.0557151 0)
(1.80467 0.00459921 0)
(1.80881 0.064533 0)
(1.81273 0.122253 0)
(1.81612 0.176207 0)
(1.8187 0.225076 0)
(1.82019 0.267821 0)
(1.82036 0.30372 0)
(1.8191 0.332398 0)
(1.81639 0.35383 0)
(1.8124 0.368286 0)
(1.80722 0.376269 0)
(1.80009 0.37779 0)
(1.79142 0.37261 0)
(1.78138 0.361121 0)
(1.77065 0.343802 0)
(1.75984 0.32119 0)
(1.74938 0.293662 0)
(1.73966 0.261487 0)
(1.73104 0.224941 0)
(1.72382 0.184389 0)
(1.71823 0.140359 0)
(1.71445 0.0935886 0)
(1.71258 0.0450948 0)
(1.71259 -0.00359658 0)
(1.71436 -0.0511093 0)
(1.71768 -0.0962994 0)
(1.72234 -0.138089 0)
(1.72804 -0.175511 0)
(1.73449 -0.207775 0)
(1.74136 -0.234349 0)
(1.74835 -0.255003 0)
(1.75509 -0.269811 0)
(1.7612 -0.279143 0)
(1.76677 -0.28342 0)
(1.77243 -0.281858 0)
(1.77772 -0.273418 0)
(1.78255 -0.25839 0)
(1.78692 -0.237308 0)
(1.79095 -0.210686 0)
(1.79477 -0.179035 0)
(1.79846 -0.142921 0)
(1.80209 -0.103014 0)
(1.80565 -0.0601556 0)
(1.80909 -0.0154703 0)
(1.81223 0.0293341 0)
(1.81486 0.0728192 0)
(1.81684 0.113845 0)
(1.81798 0.151393 0)
(1.81814 0.184605 0)
(1.81721 0.21284 0)
(1.81514 0.235708 0)
(1.81197 0.253085 0)
(1.80787 0.265073 0)
(1.80292 0.271942 0)
(1.79653 0.273623 0)
(1.78904 0.26986 0)
(1.78053 0.260919 0)
(1.77152 0.247166 0)
(1.76252 0.229095 0)
(1.75388 0.207115 0)
(1.74594 0.181558 0)
(1.73897 0.152752 0)
(1.73322 0.121053 0)
(1.72886 0.0869103 0)
(1.72603 0.0509156 0)
(1.72479 0.0139092 0)
(1.72511 -0.022934 0)
(1.72688 -0.0586697 0)
(1.72993 -0.0924452 0)
(1.73407 -0.123443 0)
(1.73908 -0.150951 0)
(1.74468 -0.174427 0)
(1.75062 -0.19354 0)
(1.75662 -0.208184 0)
(1.76242 -0.218464 0)
(1.76779 -0.224651 0)
(1.77311 -0.226809 0)
(1.77843 -0.224143 0)
(1.78351 -0.216226 0)
(1.78824 -0.203324 0)
(1.76348 0.0751748 0)
(1.77151 0.150841 0)
(1.77984 0.219973 0)
(1.78783 0.281176 0)
(1.79487 0.333621 0)
(1.80049 0.377023 0)
(1.8043 0.411527 0)
(1.80611 0.437593 0)
(1.80594 0.455841 0)
(1.8043 0.467025 0)
(1.80059 0.471671 0)
(1.79505 0.469871 0)
(1.78753 0.461075 0)
(1.77897 0.445071 0)
(1.77037 0.42179 0)
(1.76218 0.39107 0)
(1.75482 0.352776 0)
(1.74867 0.307058 0)
(1.74402 0.254462 0)
(1.7411 0.195931 0)
(1.74008 0.132798 0)
(1.74096 0.0668679 0)
(1.74359 0.000580702 0)
(1.74764 -0.0638568 0)
(1.75274 -0.124793 0)
(1.7585 -0.180772 0)
(1.76447 -0.230618 0)
(1.77023 -0.273441 0)
(1.77542 -0.308674 0)
(1.77984 -0.336144 0)
(1.78341 -0.355878 0)
(1.786 -0.368168 0)
(1.78749 -0.373764 0)
(1.78778 -0.374449 0)
(1.78652 -0.367139 0)
(1.78429 -0.350916 0)
(1.78166 -0.327806 0)
(1.77907 -0.297908 0)
(1.77683 -0.261344 0)
(1.77522 -0.218424 0)
(1.77441 -0.169691 0)
(1.77454 -0.115965 0)
(1.77566 -0.0584065 0)
(1.77771 0.00137344 0)
(1.78046 0.0610653 0)
(1.78361 0.118824 0)
(1.78687 0.173116 0)
(1.78994 0.222622 0)
(1.7925 0.266281 0)
(1.79428 0.303303 0)
(1.79509 0.333224 0)
(1.79481 0.35591 0)
(1.79351 0.371524 0)
(1.79151 0.3805 0)
(1.7884 0.383541 0)
(1.78351 0.379907 0)
(1.77704 0.369459 0)
(1.76987 0.352668 0)
(1.76257 0.33009 0)
(1.75544 0.302163 0)
(1.74882 0.269212 0)
(1.74305 0.231566 0)
(1.73839 0.189652 0)
(1.73505 0.144066 0)
(1.73317 0.0956221 0)
(1.73282 0.0454203 0)
(1.73392 -0.00486995 0)
(1.7363 -0.0538184 0)
(1.73976 -0.100231 0)
(1.74405 -0.142983 0)
(1.7489 -0.181088 0)
(1.75406 -0.213762 0)
(1.7593 -0.240461 0)
(1.76439 -0.260914 0)
(1.76907 -0.275219 0)
(1.77297 -0.283851 0)
(1.77593 -0.28748 0)
(1.77874 -0.28586 0)
(1.78092 -0.276827 0)
(1.78242 -0.261247 0)
(1.78347 -0.239841 0)
(1.7843 -0.213038 0)
(1.78509 -0.181326 0)
(1.78598 -0.145243 0)
(1.78709 -0.105419 0)
(1.78847 -0.0626442 0)
(1.79012 -0.0179778 0)
(1.79193 0.0269928 0)
(1.79373 0.0708039 0)
(1.79537 0.112331 0)
(1.79667 0.150538 0)
(1.79746 0.184552 0)
(1.79759 0.213691 0)
(1.79698 0.237494 0)
(1.79559 0.255751 0)
(1.79353 0.268501 0)
(1.79106 0.276032 0)
(1.78789 0.278826 0)
(1.78335 0.276216 0)
(1.77766 0.268051 0)
(1.77147 0.254644 0)
(1.76529 0.236509 0)
(1.75935 0.214113 0)
(1.75392 0.187841 0)
(1.74925 0.158064 0)
(1.74555 0.125192 0)
(1.74299 0.0897257 0)
(1.74167 0.0523176 0)
(1.74163 0.0138924 0)
(1.74279 -0.0242768 0)
(1.74501 -0.0611986 0)
(1.74813 -0.0959879 0)
(1.75196 -0.127796 0)
(1.75631 -0.155889 0)
(1.76097 -0.179708 0)
(1.76572 -0.198904 0)
(1.77035 -0.213386 0)
(1.77461 -0.223313 0)
(1.77818 -0.229097 0)
(1.78131 -0.231118 0)
(1.78446 -0.228255 0)
(1.78727 -0.219915 0)
(1.78952 -0.206591 0)
(1.78032 0.451486 0)
(1.77613 0.428065 0)
(1.77228 0.396814 0)
(1.76904 0.357606 0)
(1.76673 0.310687 0)
(1.76558 0.256663 0)
(1.76576 0.196538 0)
(1.76735 0.131754 0)
(1.77032 0.0642532 0)
(1.77442 -0.00330617 0)
(1.77929 -0.0686835 0)
(1.78458 -0.130183 0)
(1.78988 -0.186289 0)
(1.79476 -0.235819 0)
(1.79884 -0.277952 0)
(1.80181 -0.312228 0)
(1.80349 -0.338785 0)
(1.80385 -0.357413 0)
(1.80311 -0.368741 0)
(1.80115 -0.37349 0)
(1.7974 -0.371916 0)
(1.79177 -0.362598 0)
(1.78511 -0.346201 0)
(1.77827 -0.323073 0)
(1.77162 -0.293453 0)
(1.76549 -0.257491 0)
(1.76026 -0.215436 0)
(1.75617 -0.167753 0)
(1.7534 -0.115195 0)
(1.75206 -0.0588354 0)
(1.75214 -0.00014909 0)
(1.75347 0.0586946 0)
(1.7558 0.115886 0)
(1.75885 0.169906 0)
(1.76227 0.219473 0)
(1.76575 0.263492 0)
(1.769 0.301132 0)
(1.77178 0.331852 0)
(1.77394 0.355393 0)
(1.7754 0.371808 0)
(1.77621 0.381491 0)
(1.77637 0.385251 0)
(1.77512 0.384383 0)
(1.77241 0.374758 0)
(1.76898 0.358194 0)
(1.76528 0.335621 0)
(1.76158 0.307417 0)
(1.75821 0.273887 0)
(1.75547 0.23539 0)
(1.75355 0.192411 0)
(1.75262 0.145606 0)
(1.75279 0.0958577 0)
(1.75407 0.0443877 0)
(1.75632 -0.00702749 0)
(1.75937 -0.0569261 0)
(1.76297 -0.104034 0)
(1.76687 -0.14722 0)
(1.77079 -0.185517 0)
(1.77452 -0.21817 0)
(1.77787 -0.244686 0)
(1.78071 -0.26473 0)
(1.78295 -0.278348 0)
(1.78453 -0.286007 0)
(1.78536 -0.288707 0)
(1.78519 -0.2872 0)
(1.7839 -0.277258 0)
(1.78197 -0.260973 0)
(1.77968 -0.239185 0)
(1.7773 -0.212288 0)
(1.77506 -0.1807 0)
(1.77317 -0.144897 0)
(1.77178 -0.105465 0)
(1.771 -0.0631412 0)
(1.77086 -0.018911 0)
(1.77134 0.0257577 0)
(1.77228 0.0693967 0)
(1.77355 0.110917 0)
(1.77496 0.149323 0)
(1.77632 0.183701 0)
(1.77746 0.213327 0)
(1.77828 0.237699 0)
(1.7787 0.256533 0)
(1.77872 0.269811 0)
(1.77845 0.277774 0)
(1.77785 0.280943 0)
(1.77626 0.280396 0)
(1.77353 0.272772 0)
(1.77028 0.259451 0)
(1.76702 0.241221 0)
(1.76388 0.218495 0)
(1.76108 0.19167 0)
(1.75884 0.161131 0)
(1.75735 0.127327 0)
(1.75672 0.0908127 0)
(1.75704 0.0523033 0)
(1.75829 0.0128151 0)
(1.76035 -0.0262892 0)
(1.76306 -0.0639936 0)
(1.76625 -0.0993841 0)
(1.76972 -0.131613 0)
(1.7733 -0.159953 0)
(1.77683 -0.183838 0)
(1.78017 -0.202902 0)
(1.7832 -0.217028 0)
(1.78576 -0.226351 0)
(1.78765 -0.231316 0)
(1.78892 -0.232662 0)
(1.78981 -0.230357 0)
(1.79001 -0.221278 0)
(1.78981 -0.207418 0)
(0.0562479 -0.00134099 0)
(0.060704 -0.00173895 0)
(0.0658676 -0.00197498 0)
(0.0713783 -0.00204844 0)
(0.0768895 -0.00197408 0)
(0.0820976 -0.00176689 0)
(0.0867384 -0.00144368 0)
(0.0906074 -0.00103892 0)
(0.0935736 -0.000603567 0)
(0.0955925 -0.000188138 0)
(0.0967229 0.000176971 0)
(0.0971 0.000456296 0)
(0.0968964 0.000635632 0)
(0.0962917 0.000717513 0)
(0.0954802 0.000711336 0)
(0.0946471 0.000623207 0)
(0.0939613 0.000470625 0)
(0.0935603 0.000266088 0)
(0.0935011 1.64716e-05 0)
(0.0938018 -0.000222086 0)
(0.0944859 -0.000428889 0)
(0.0955428 -0.000601036 0)
(0.0969061 -0.00073043 0)
(0.0984839 -0.000816781 0)
(0.10019 -0.000865009 0)
(0.101944 -0.000873128 0)
(0.103656 -0.000837569 0)
(0.105229 -0.000757749 0)
(0.106559 -0.00063668 0)
(0.107549 -0.000481287 0)
(0.108118 -0.000303803 0)
(0.108246 -8.13889e-05 0)
(0.107937 0.000138275 0)
(0.10721 0.000322321 0)
(0.106111 0.000473034 0)
(0.104707 0.000586729 0)
(0.10308 0.000662231 0)
(0.101317 0.00069911 0)
(0.0995037 0.000701314 0)
(0.0977172 0.000671879 0)
(0.0960267 0.000614012 0)
(0.0944855 0.000535281 0)
(0.0931305 0.000443145 0)
(0.0919795 0.00034244 0)
(0.0910404 0.0002406 0)
(0.0903095 0.000144351 0)
(0.0897704 5.83327e-05 0)
(0.0893932 -1.34062e-05 0)
(0.0891352 -6.74565e-05 0)
(0.0889483 -0.00010268 0)
(0.088788 -0.000119346 0)
(0.0886135 -0.000118558 0)
(0.0883932 -0.000102026 0)
(0.088103 -7.35093e-05 0)
(0.0877292 -3.8549e-05 0)
(0.0872714 -2.26072e-06 0)
(0.0867386 2.98291e-05 0)
(0.0861492 5.31061e-05 0)
(0.0855283 6.53567e-05 0)
(0.0849057 6.55041e-05 0)
(0.084314 5.25619e-05 0)
(0.0837856 2.59466e-05 0)
(0.0833502 -1.31691e-05 0)
(0.0830321 -6.1535e-05 0)
(0.0828469 -0.00011463 0)
(0.0828007 -0.000167833 0)
(0.0828914 -0.000218663 0)
(0.0831115 -0.000263981 0)
(0.0834461 -0.00030214 0)
(0.0838795 -0.000336624 0)
(0.0843967 -0.000362723 0)
(0.0849741 -0.000375073 0)
(0.0855785 -0.000370114 0)
(0.0861682 -0.000344903 0)
(0.0866977 -0.000297897 0)
(0.0871293 -0.000236639 0)
(0.0874357 -0.000168278 0)
(0.0876006 -9.30979e-05 0)
(0.0876207 -1.26008e-05 0)
(0.0874959 6.11095e-05 0)
(0.0872341 0.000125369 0)
(0.0868575 0.000176922 0)
(0.0863988 0.000211059 0)
(0.0858978 0.000225028 0)
(0.0853988 0.000219064 0)
(0.0849436 0.000195541 0)
(0.0845685 0.00015763 0)
(0.0843041 0.000109537 0)
(0.0841721 5.4898e-05 0)
(0.0841737 -7.28041e-06 0)
(0.0843021 -6.23205e-05 0)
(0.0845478 -0.000107531 0)
(0.0848911 -0.000141587 0)
(0.0853063 -0.000162352 0)
(0.0857637 -0.000168396 0)
(0.0862341 -0.000162319 0)
(0.0866932 -0.000147099 0)
(0.0871227 -0.000125576 0)
(0.0875121 -0.000101814 0)
(0.0878601 -8.06513e-05 0)
(0.0881753 -6.62936e-05 0)
(0.0884732 -6.17836e-05 0)
(0.0887747 -6.896e-05 0)
(0.0891034 -8.8594e-05 0)
(0.0894836 -0.000120278 0)
(0.0899384 -0.000162227 0)
(0.0904864 -0.000211518 0)
(0.09114 -0.000265028 0)
(0.0919058 -0.000319727 0)
(0.0927845 -0.000372873 0)
(0.0937716 -0.000422167 0)
(0.0948584 -0.000465683 0)
(0.0960324 -0.000501921 0)
(0.097278 -0.00052953 0)
(0.0985762 -0.000547111 0)
(0.0999047 -0.000553504 0)
(0.101239 -0.000547786 0)
(0.102551 -0.000529475 0)
(0.103816 -0.000499252 0)
(0.105008 -0.00045919 0)
(0.106111 -0.000412238 0)
(0.10711 -0.000361359 0)
(0.108002 -0.000309143 0)
(0.294217 -0.00693277 0)
(0.301033 -0.00807409 0)
(0.308369 -0.00869268 0)
(0.315867 -0.00879867 0)
(0.323157 -0.00843769 0)
(0.32995 -0.00768917 0)
(0.335985 -0.00663669 0)
(0.341085 -0.0053707 0)
(0.345134 -0.00400433 0)
(0.348109 -0.00266788 0)
(0.350086 -0.00149223 0)
(0.351221 -0.000549818 0)
(0.351726 0.000153596 0)
(0.351798 0.000607156 0)
(0.351608 0.000812347 0)
(0.35134 0.000764741 0)
(0.35117 0.000503881 0)
(0.351215 0.000103751 0)
(0.35156 -0.000393467 0)
(0.352247 -0.000908761 0)
(0.353246 -0.00141247 0)
(0.354525 -0.00185585 0)
(0.356014 -0.00218315 0)
(0.357607 -0.00237996 0)
(0.359205 -0.00245974 0)
(0.360739 -0.00243382 0)
(0.362137 -0.00229209 0)
(0.363308 -0.0020046 0)
(0.36416 -0.00157447 0)
(0.364611 -0.000998297 0)
(0.364591 -0.000305838 0)
(0.364047 0.000428233 0)
(0.362974 0.00113081 0)
(0.36144 0.00174066 0)
(0.359534 0.00223161 0)
(0.357333 0.00259888 0)
(0.354912 0.00284013 0)
(0.352356 0.00294598 0)
(0.349751 0.00292996 0)
(0.347176 0.00280972 0)
(0.344694 0.00260094 0)
(0.342345 0.002328 0)
(0.340167 0.00202182 0)
(0.338179 0.00170212 0)
(0.336387 0.00138121 0)
(0.334788 0.00107421 0)
(0.333363 0.000804134 0)
(0.332081 0.00059506 0)
(0.330903 0.000460379 0)
(0.329789 0.000400262 0)
(0.328699 0.000409847 0)
(0.327597 0.000477973 0)
(0.326452 0.000587926 0)
(0.325244 0.000722742 0)
(0.323956 0.000864093 0)
(0.32259 0.000994405 0)
(0.321157 0.00109962 0)
(0.319679 0.00116688 0)
(0.318184 0.00118718 0)
(0.316705 0.00115733 0)
(0.315273 0.00107681 0)
(0.31392 0.000947763 0)
(0.312679 0.000776244 0)
(0.311575 0.000574039 0)
(0.310626 0.000356636 0)
(0.309837 0.000139562 0)
(0.309206 -6.5457e-05 0)
(0.308729 -0.000261919 0)
(0.308387 -0.000445492 0)
(0.308158 -0.00060001 0)
(0.30804 -0.000719523 0)
(0.308009 -0.000794875 0)
(0.308032 -0.000815312 0)
(0.308068 -0.000768763 0)
(0.308064 -0.000653466 0)
(0.307979 -0.000487924 0)
(0.30779 -0.000291544 0)
(0.307489 -8.06943e-05 0)
(0.307065 0.000132996 0)
(0.306521 0.000334616 0)
(0.305875 0.000512603 0)
(0.305151 0.000648218 0)
(0.304385 0.000728557 0)
(0.303623 0.000745678 0)
(0.302904 0.000698786 0)
(0.302271 0.000594762 0)
(0.30176 0.000444853 0)
(0.301399 0.000259667 0)
(0.301204 5.09425e-05 0)
(0.301186 -0.000170587 0)
(0.301345 -0.000370955 0)
(0.301653 -0.000540184 0)
(0.302088 -0.000670489 0)
(0.30262 -0.000757023 0)
(0.303217 -0.000800848 0)
(0.303844 -0.000805036 0)
(0.304476 -0.000776532 0)
(0.305092 -0.000727055 0)
(0.30568 -0.000670296 0)
(0.306238 -0.000620719 0)
(0.306778 -0.000591016 0)
(0.307314 -0.000590041 0)
(0.307869 -0.000623265 0)
(0.308469 -0.000693544 0)
(0.309138 -0.000800032 0)
(0.3099 -0.000937297 0)
(0.310773 -0.00109598 0)
(0.311768 -0.00126583 0)
(0.312889 -0.00143753 0)
(0.314132 -0.00160312 0)
(0.315491 -0.00175589 0)
(0.316953 -0.00189015 0)
(0.318504 -0.00200175 0)
(0.320124 -0.00208669 0)
(0.321794 -0.00213978 0)
(0.32349 -0.00215661 0)
(0.325183 -0.00213428 0)
(0.326846 -0.00207141 0)
(0.328449 -0.00197001 0)
(0.329968 -0.00183741 0)
(0.331384 -0.00168358 0)
(0.332685 -0.00151818 0)
(0.333866 -0.00134955 0)
(0.628944 -0.0142239 0)
(0.634149 -0.0159529 0)
(0.639913 -0.0168363 0)
(0.64597 -0.0168755 0)
(0.652024 -0.0161124 0)
(0.657775 -0.0146833 0)
(0.663002 -0.0127259 0)
(0.667528 -0.0103613 0)
(0.671193 -0.00775652 0)
(0.673917 -0.00516755 0)
(0.675719 -0.00284732 0)
(0.676679 -0.000988321 0)
(0.67689 0.000387588 0)
(0.676391 0.00129859 0)
(0.675359 0.0016487 0)
(0.67404 0.00148183 0)
(0.672629 0.000923442 0)
(0.671318 0.00014673 0)
(0.670235 -0.000752529 0)
(0.669452 -0.00172615 0)
(0.66901 -0.00264065 0)
(0.668966 -0.00340372 0)
(0.669283 -0.00391495 0)
(0.66985 -0.00410347 0)
(0.670542 -0.00410244 0)
(0.671286 -0.00390779 0)
(0.672038 -0.00345758 0)
(0.672704 -0.00280125 0)
(0.673126 -0.00196916 0)
(0.673149 -0.000941528 0)
(0.67263 0.000234371 0)
(0.671465 0.00142149 0)
(0.669667 0.00251474 0)
(0.667317 0.00347123 0)
(0.664517 0.00428368 0)
(0.661367 0.00493715 0)
(0.657946 0.00539768 0)
(0.654344 0.00564782 0)
(0.650671 0.00570036 0)
(0.647025 0.00557953 0)
(0.643482 0.00531552 0)
(0.640094 0.00494844 0)
(0.636909 0.00451985 0)
(0.633954 0.00406468 0)
(0.631238 0.00361225 0)
(0.628753 0.00318902 0)
(0.626478 0.0028231 0)
(0.624377 0.00254126 0)
(0.622404 0.00235536 0)
(0.620506 0.00226127 0)
(0.618631 0.00224789 0)
(0.616731 0.00230045 0)
(0.61476 0.00240449 0)
(0.612685 0.00254968 0)
(0.610486 0.00270753 0)
(0.608163 0.00284769 0)
(0.605736 0.00294974 0)
(0.603239 0.00299689 0)
(0.600717 0.00297935 0)
(0.598213 0.00289598 0)
(0.595765 0.00274216 0)
(0.593414 0.00251449 0)
(0.5912 0.00222037 0)
(0.589157 0.00187807 0)
(0.587303 0.00151126 0)
(0.585642 0.001144 0)
(0.58416 0.000793981 0)
(0.582838 0.000469055 0)
(0.581673 0.000167496 0)
(0.580656 -9.55315e-05 0)
(0.579772 -0.000308354 0)
(0.579 -0.000455082 0)
(0.578313 -0.000504682 0)
(0.577662 -0.000426048 0)
(0.576989 -0.000233471 0)
(0.57624 3.55093e-05 0)
(0.575387 0.000346634 0)
(0.574427 0.000673728 0)
(0.573359 0.000996987 0)
(0.572184 0.00129638 0)
(0.570912 0.00154428 0)
(0.569572 0.00171599 0)
(0.568202 0.00179173 0)
(0.566846 0.00175947 0)
(0.565545 0.00161943 0)
(0.564347 0.00138343 0)
(0.56329 0.00106678 0)
(0.562407 0.000690108 0)
(0.561717 0.0002797 0)
(0.56123 -0.000134483 0)
(0.56094 -0.000520835 0)
(0.560818 -0.000843114 0)
(0.560836 -0.00110777 0)
(0.560971 -0.00130422 0)
(0.561184 -0.00140181 0)
(0.56144 -0.00142734 0)
(0.561703 -0.00140063 0)
(0.561946 -0.00133022 0)
(0.562155 -0.00124014 0)
(0.562329 -0.00116187 0)
(0.562483 -0.00111703 0)
(0.562633 -0.0011201 0)
(0.562802 -0.00118034 0)
(0.563017 -0.00130187 0)
(0.563306 -0.00148375 0)
(0.563699 -0.00171794 0)
(0.564216 -0.0019875 0)
(0.56487 -0.00227712 0)
(0.565663 -0.00257121 0)
(0.566589 -0.00285666 0)
(0.567639 -0.00312262 0)
(0.568799 -0.00335897 0)
(0.570056 -0.0035562 0)
(0.571393 -0.00370644 0)
(0.572793 -0.00380347 0)
(0.574229 -0.00384117 0)
(0.575674 -0.00381404 0)
(0.577097 -0.00371836 0)
(0.578464 -0.00355434 0)
(0.579746 -0.00333445 0)
(0.580922 -0.00307681 0)
(0.581983 -0.00279897 0)
(0.582925 -0.00251583 0)
(1.00374 -0.0162737 0)
(1.00498 -0.0191465 0)
(1.00713 -0.0208631 0)
(1.01004 -0.0213274 0)
(1.01349 -0.0205945 0)
(1.01727 -0.0189106 0)
(1.02118 -0.0164854 0)
(1.02494 -0.0134988 0)
(1.02824 -0.0102249 0)
(1.03086 -0.0070197 0)
(1.03264 -0.00416596 0)
(1.03353 -0.00177326 0)
(1.03357 0.000204512 0)
(1.03279 0.00179623 0)
(1.03133 0.00283864 0)
(1.02932 0.00320474 0)
(1.02684 0.00295052 0)
(1.02395 0.00224441 0)
(1.02076 0.00124761 0)
(1.01758 0.000114682 0)
(1.01466 -0.00109945 0)
(1.01204 -0.00227104 0)
(1.00971 -0.00314344 0)
(1.00772 -0.00367243 0)
(1.00609 -0.00392911 0)
(1.00479 -0.00399869 0)
(1.00386 -0.00389239 0)
(1.00331 -0.00330428 0)
(1.00317 -0.0022326 0)
(1.00317 -0.000627246 0)
(1.00292 0.00139265 0)
(1.00214 0.00357652 0)
(1.00072 0.00563029 0)
(0.998669 0.00737653 0)
(0.995989 0.00871159 0)
(0.992648 0.00968166 0)
(0.988675 0.0103678 0)
(0.984178 0.0106455 0)
(0.97931 0.0106017 0)
(0.974233 0.0102955 0)
(0.969116 0.00978064 0)
(0.964105 0.00911918 0)
(0.959292 0.00834979 0)
(0.954762 0.00751193 0)
(0.950577 0.00665819 0)
(0.946775 0.00583871 0)
(0.943365 0.00510105 0)
(0.940312 0.00449592 0)
(0.937548 0.00406917 0)
(0.934998 0.00384113 0)
(0.932585 0.00381653 0)
(0.930232 0.00398367 0)
(0.927864 0.00429479 0)
(0.925383 0.00469872 0)
(0.922703 0.0051426 0)
(0.919786 0.00557107 0)
(0.916643 0.0059307 0)
(0.913312 0.00616642 0)
(0.909854 0.00625082 0)
(0.906331 0.00619894 0)
(0.902808 0.00601102 0)
(0.899358 0.00567798 0)
(0.896054 0.00521061 0)
(0.89296 0.00464603 0)
(0.890122 0.0040363 0)
(0.887553 0.00343805 0)
(0.885243 0.00288513 0)
(0.88317 0.00238178 0)
(0.881312 0.00192057 0)
(0.87965 0.00148923 0)
(0.878166 0.00109913 0)
(0.876845 0.000782632 0)
(0.875648 0.000599003 0)
(0.874488 0.000610355 0)
(0.873263 0.000804725 0)
(0.871896 0.00110346 0)
(0.870371 0.00144865 0)
(0.868701 0.00182408 0)
(0.866891 0.00222492 0)
(0.864947 0.00262517 0)
(0.862884 0.00297817 0)
(0.860738 0.00323301 0)
(0.858564 0.00335178 0)
(0.856415 0.00331592 0)
(0.85434 0.00312124 0)
(0.852393 0.00278066 0)
(0.850619 0.00232076 0)
(0.849052 0.0017765 0)
(0.847708 0.0011859 0)
(0.846595 0.000592452 0)
(0.845709 3.75034e-05 0)
(0.845027 -0.000438655 0)
(0.844505 -0.000813245 0)
(0.844089 -0.00107922 0)
(0.843737 -0.00123571 0)
(0.84341 -0.00128618 0)
(0.843079 -0.0012467 0)
(0.842713 -0.00114624 0)
(0.842296 -0.00101986 0)
(0.841826 -0.000910961 0)
(0.841321 -0.000853735 0)
(0.84081 -0.000866309 0)
(0.840318 -0.000960211 0)
(0.839874 -0.00114902 0)
(0.839511 -0.00143779 0)
(0.839264 -0.00181327 0)
(0.839163 -0.00224922 0)
(0.839216 -0.00271357 0)
(0.839425 -0.0031786 0)
(0.839782 -0.00362186 0)
(0.840277 -0.00402687 0)
(0.840896 -0.00437884 0)
(0.841622 -0.00467589 0)
(0.842436 -0.0049169 0)
(0.843321 -0.00507898 0)
(0.844257 -0.00514679 0)
(0.845219 -0.00511224 0)
(0.846174 -0.00496951 0)
(0.847078 -0.00471523 0)
(0.84789 -0.00437567 0)
(0.848586 -0.00398476 0)
(0.849156 -0.00357053 0)
(0.849598 -0.00315542 0)
(1.30369 -0.0156448 0)
(1.30119 -0.0191439 0)
(1.29995 -0.0218693 0)
(1.30004 -0.0235816 0)
(1.30156 -0.024001 0)
(1.3044 -0.0233638 0)
(1.30858 -0.0215469 0)
(1.31404 -0.0186858 0)
(1.32051 -0.0149645 0)
(1.32747 -0.0106545 0)
(1.33409 -0.00618329 0)
(1.33965 -0.00208648 0)
(1.34381 0.00130883 0)
(1.34647 0.00385746 0)
(1.34771 0.00553104 0)
(1.34766 0.00657525 0)
(1.34625 0.00690687 0)
(1.34376 0.00689313 0)
(1.34044 0.00630858 0)
(1.33656 0.00499573 0)
(1.33248 0.00342584 0)
(1.32855 0.00191612 0)
(1.32488 0.000606397 0)
(1.32145 -0.000423918 0)
(1.31813 -0.0011856 0)
(1.31485 -0.00173668 0)
(1.31173 -0.00211015 0)
(1.30895 -0.00220411 0)
(1.30661 -0.0018516 0)
(1.30454 -0.000761833 0)
(1.3024 0.00103124 0)
(1.29987 0.00313266 0)
(1.29687 0.00524498 0)
(1.2936 0.00726445 0)
(1.29017 0.00932864 0)
(1.28645 0.011404 0)
(1.28233 0.013251 0)
(1.27785 0.0146204 0)
(1.27307 0.0154738 0)
(1.26802 0.0157452 0)
(1.2628 0.0154522 0)
(1.25759 0.0147665 0)
(1.25256 0.0138235 0)
(1.24788 0.0127258 0)
(1.24368 0.0115579 0)
(1.24002 0.0103891 0)
(1.23689 0.00932246 0)
(1.23423 0.00848318 0)
(1.23195 0.00788897 0)
(1.22994 0.00752413 0)
(1.22808 0.00739045 0)
(1.2262 0.00742995 0)
(1.22415 0.00762459 0)
(1.22177 0.00808011 0)
(1.219 0.00866731 0)
(1.21581 0.00922479 0)
(1.21221 0.00967132 0)
(1.20828 0.00996157 0)
(1.20415 0.0100757 0)
(1.19995 0.00999593 0)
(1.19571 0.00970019 0)
(1.19152 0.00918666 0)
(1.18748 0.00848567 0)
(1.1837 0.00765425 0)
(1.18023 0.00675437 0)
(1.17708 0.00583813 0)
(1.17422 0.00495166 0)
(1.1716 0.00413446 0)
(1.1692 0.00341232 0)
(1.16705 0.00278088 0)
(1.16516 0.00223755 0)
(1.16355 0.00180724 0)
(1.16218 0.00158198 0)
(1.16093 0.0016976 0)
(1.15963 0.00217961 0)
(1.15815 0.00285581 0)
(1.15645 0.00357958 0)
(1.15459 0.00429123 0)
(1.15254 0.00497216 0)
(1.15027 0.00557856 0)
(1.14777 0.00603069 0)
(1.14507 0.00628049 0)
(1.14223 0.00632962 0)
(1.13935 0.00617157 0)
(1.13653 0.00581164 0)
(1.13384 0.00526929 0)
(1.13135 0.0045708 0)
(1.12911 0.00375194 0)
(1.12715 0.00285712 0)
(1.12549 0.00195018 0)
(1.1241 0.00111044 0)
(1.12294 0.000394623 0)
(1.12193 -0.000165308 0)
(1.12102 -0.000558291 0)
(1.12014 -0.000786964 0)
(1.11926 -0.000853892 0)
(1.11833 -0.000771961 0)
(1.11731 -0.000598135 0)
(1.11617 -0.000393854 0)
(1.1149 -0.00022535 0)
(1.11354 -0.000144938 0)
(1.11215 -0.00016695 0)
(1.11079 -0.000292331 0)
(1.10949 -0.000538187 0)
(1.10831 -0.000921297 0)
(1.1073 -0.00143049 0)
(1.10648 -0.00200292 0)
(1.10586 -0.00259534 0)
(1.10543 -0.00317471 0)
(1.10518 -0.00372082 0)
(1.10511 -0.00422192 0)
(1.10521 -0.00466404 0)
(1.10544 -0.00503293 0)
(1.10578 -0.00532237 0)
(1.10622 -0.00552957 0)
(1.10673 -0.00564032 0)
(1.1073 -0.00563313 0)
(1.10791 -0.00548403 0)
(1.10848 -0.00518448 0)
(1.10895 -0.00476942 0)
(1.10927 -0.00428719 0)
(1.10945 -0.00377469 0)
(1.10946 -0.00326224 0)
(1.52798 -0.0105664 0)
(1.51451 -0.0156234 0)
(1.50353 -0.0198636 0)
(1.49523 -0.0228105 0)
(1.48966 -0.0245898 0)
(1.48667 -0.0254311 0)
(1.48576 -0.0255794 0)
(1.48683 -0.024948 0)
(1.49009 -0.0231526 0)
(1.49535 -0.0201806 0)
(1.50219 -0.0162099 0)
(1.50979 -0.0116089 0)
(1.51711 -0.0069629 0)
(1.52348 -0.00262332 0)
(1.52853 0.00116327 0)
(1.53219 0.00416695 0)
(1.53462 0.00623959 0)
(1.53605 0.00739017 0)
(1.5368 0.00777454 0)
(1.53715 0.00762124 0)
(1.53743 0.00650815 0)
(1.53808 0.00498608 0)
(1.5395 0.00364848 0)
(1.54184 0.00292013 0)
(1.54502 0.00273877 0)
(1.54892 0.00263519 0)
(1.55333 0.00236739 0)
(1.55771 0.00197396 0)
(1.56149 0.00190161 0)
(1.56429 0.00311808 0)
(1.56539 0.00595772 0)
(1.56404 0.00964377 0)
(1.56007 0.0129228 0)
(1.55402 0.0153138 0)
(1.54642 0.0171698 0)
(1.53735 0.0187313 0)
(1.5269 0.0197828 0)
(1.51562 0.020273 0)
(1.50406 0.0204657 0)
(1.49254 0.0204114 0)
(1.48144 0.0200063 0)
(1.47104 0.0192882 0)
(1.46155 0.0181275 0)
(1.45318 0.0165417 0)
(1.44613 0.0146881 0)
(1.44051 0.0127613 0)
(1.43634 0.0109313 0)
(1.43357 0.0093465 0)
(1.43207 0.00818074 0)