/*--------------------------------*- C++ -*----------------------------------*\
| =========                 |                                                 |
| \\      /  F ield         | OpenFOAM: The Open Source CFD Toolbox           |
|  \\    /   O peration     | Version:  2206                                  |
|   \\  /    A nd           | Website:  www.openfoam.com                      |
|    \\/     M anipulation  |                                                 |
\*---------------------------------------------------------------------------*/
FoamFile
{
    version     2.0;
    format      ascii;
    arch        "LSB;label=32;scalar=64";
    class       surfaceScalarField;
    location    "18.2001";
    object      phi;
}
// * * * * * * * * * * * * * * * * * * * * * * * * * * * * * * * * * * * * * //

dimensions      [0 3 -1 0 0 0 0];

oriented        oriented;

internalField   nonuniform List<scalar> 
9487
(
1.03313e-05
1.00306e-07
-1.45801e-07
1.03814e-05
-1.11176e-07
6.10943e-08
1.04355e-05
-3.18087e-07
2.63969e-07
1.04931e-05
-5.18185e-07
4.6065e-07
1.05533e-05
-7.09355e-07
6.49064e-07
1.06157e-05
-8.89638e-07
8.27262e-07
1.06795e-05
-1.05725e-06
9.93451e-07
1.07441e-05
-1.21059e-06
1.14601e-06
1.08089e-05
-1.34828e-06
1.28352e-06
1.08733e-05
-1.4692e-06
1.40477e-06
1.09369e-05
-1.57244e-06
1.50881e-06
1.09994e-05
-1.65735e-06
1.59488e-06
1.10604e-05
-1.72355e-06
1.6625e-06
1.112e-05
-1.77086e-06
1.71134e-06
1.1178e-05
-1.79897e-06
1.74094e-06
1.12344e-05
-1.8061e-06
1.74965e-06
1.12889e-05
-1.7893e-06
1.73488e-06
1.13407e-05
-1.7475e-06
1.69563e-06
1.13895e-05
-1.68053e-06
1.63174e-06
1.14347e-05
-1.58872e-06
1.54352e-06
1.14758e-05
-1.47282e-06
1.43175e-06
1.15122e-05
-1.33409e-06
1.29768e-06
1.15434e-05
-1.17426e-06
1.14303e-06
1.1569e-05
-9.95551e-07
9.70004e-07
1.15884e-05
-8.0063e-07
7.8123e-07
1.16012e-05
-5.92605e-07
5.79762e-07
1.16071e-05
-3.75072e-07
3.69134e-07
1.16059e-05
-1.52313e-07
1.5361e-07
1.15971e-05
7.01583e-08
-6.13979e-08
1.15808e-05
2.88163e-07
-2.71856e-07
1.15569e-05
4.9838e-07
-4.74518e-07
1.15256e-05
6.97882e-07
-6.6654e-07
1.14869e-05
8.84204e-07
-8.45539e-07
1.14412e-05
1.05539e-06
-1.00963e-06
1.13886e-05
1.20999e-06
-1.15744e-06
1.13296e-05
1.34703e-06
-1.28806e-06
1.12647e-05
1.46598e-06
-1.401e-06
1.11941e-05
1.56662e-06
-1.49608e-06
1.11185e-05
1.64895e-06
-1.57333e-06
1.10383e-05
1.71307e-06
-1.63285e-06
1.0954e-05
1.75902e-06
-1.67471e-06
1.08661e-05
1.78672e-06
-1.69888e-06
1.07755e-05
1.7961e-06
-1.7055e-06
1.06831e-05
1.78745e-06
-1.69497e-06
1.05896e-05
1.76115e-06
-1.66769e-06
1.04961e-05
1.71746e-06
-1.62393e-06
1.04034e-05
1.65669e-06
-1.56399e-06
1.03124e-05
1.57918e-06
-1.48822e-06
1.02241e-05
1.48541e-06
-1.39707e-06
1.01392e-05
1.37607e-06
-1.29118e-06
1.00585e-05
1.25204e-06
-1.17139e-06
9.98281e-06
1.11447e-06
-1.03876e-06
9.9127e-06
9.64708e-07
-8.94602e-07
9.84877e-06
8.04342e-07
-7.40413e-07
9.79152e-06
6.3514e-07
-5.77887e-07
9.74136e-06
4.59044e-07
-4.08882e-07
9.69862e-06
2.78178e-07
-2.35441e-07
9.66355e-06
9.50653e-08
-5.99971e-08
9.63615e-06
-8.78034e-08
1.15211e-07
9.61635e-06
-2.68484e-07
2.88282e-07
9.6039e-06
-4.44931e-07
4.57374e-07
9.59829e-06
-6.15049e-07
6.20665e-07
9.59914e-06
-7.77e-07
7.76152e-07
9.60601e-06
-9.28767e-07
9.21892e-07
9.61855e-06
-1.06879e-06
1.05625e-06
9.63633e-06
-1.19574e-06
1.17796e-06
9.65862e-06
-1.30825e-06
1.28597e-06
9.68481e-06
-1.40542e-06
1.37923e-06
9.71437e-06
-1.48654e-06
1.45698e-06
9.7468e-06
-1.55114e-06
1.51871e-06
9.78169e-06
-1.599e-06
1.56411e-06
9.81894e-06
-1.63005e-06
1.5928e-06
9.85886e-06
-1.6435e-06
1.60357e-06
9.90127e-06
-1.63745e-06
1.59504e-06
9.94574e-06
-1.61182e-06
1.56735e-06
9.99195e-06
-1.56713e-06
1.52092e-06
1.00397e-05
-1.50409e-06
1.45636e-06
1.00887e-05
-1.42358e-06
1.37451e-06
1.0139e-05
-1.32661e-06
1.27635e-06
1.01904e-05
-1.21438e-06
1.16304e-06
1.02426e-05
-1.08825e-06
1.03595e-06
1.02958e-05
-9.49755e-07
8.96648e-07
1.03495e-05
-8.00625e-07
7.46879e-07
1.04037e-05
-6.42766e-07
5.8861e-07
1.04579e-05
-4.78277e-07
4.24001e-07
1.05119e-05
-3.09466e-07
2.55465e-07
1.0565e-05
-1.391e-07
8.59885e-08
1.06168e-05
2.99991e-08
-8.17709e-08
1.06668e-05
1.9574e-07
-2.45688e-07
1.07145e-05
3.56093e-07
-4.0382e-07
1.07595e-05
5.09211e-07
-5.54218e-07
1.08013e-05
6.53319e-07
-6.9515e-07
1.08396e-05
7.86864e-07
-8.2513e-07
1.0874e-05
9.08473e-07
-9.42845e-07
1.09042e-05
1.017e-06
-1.04724e-06
1.09301e-05
1.11164e-06
-1.13749e-06
1.09515e-05
1.19161e-06
-1.21305e-06
1.09687e-05
1.25642e-06
-1.27358e-06
1.09816e-05
1.30613e-06
-1.31904e-06
1.09904e-05
1.34093e-06
-1.34977e-06
1.09954e-05
1.36164e-06
-1.36667e-06
1.0997e-05
1.37014e-06
-1.37173e-06
1.09945e-05
1.36698e-06
-1.36449e-06
1.09887e-05
1.34297e-06
-1.3371e-06
1.09809e-05
1.30118e-06
-1.29346e-06
1.09724e-05
1.24304e-06
-1.23452e-06
1.09641e-05
1.16899e-06
-1.16067e-06
1.09568e-05
1.07955e-06
-1.07227e-06
1.09513e-05
9.753e-07
-9.69775e-07
1.09481e-05
8.57062e-07
-8.53844e-07
1.09475e-05
7.25941e-07
-7.25355e-07
1.09499e-05
5.83169e-07
-5.85578e-07
1.09556e-05
4.3028e-07
-4.36019e-07
1.09646e-05
2.69202e-07
-2.78164e-07
1.09765e-05
1.02164e-07
-1.14038e-07
1.09909e-05
-6.81074e-08
5.37107e-08
1.10072e-05
-2.3826e-07
2.21921e-07
1.10251e-05
-4.05657e-07
3.87812e-07
1.1044e-05
-5.68194e-07
5.49281e-07
1.10635e-05
-7.23908e-07
7.04369e-07
1.10833e-05
-8.70902e-07
8.51155e-07
1.11028e-05
-1.00761e-06
9.8802e-07
1.11219e-05
-1.13267e-06
1.11356e-06
1.11403e-05
-1.24479e-06
1.22646e-06
1.11576e-05
-1.34299e-06
1.32567e-06
1.11737e-05
-1.42656e-06
1.41044e-06
1.11884e-05
-1.49489e-06
1.48022e-06
1.12012e-05
-1.54774e-06
1.53488e-06
1.1212e-05
-1.58533e-06
1.57461e-06
1.12203e-05
-1.60831e-06
1.59994e-06
1.12264e-05
-1.61822e-06
1.61216e-06
1.12317e-05
-1.61684e-06
1.61154e-06
1.12342e-05
-1.59427e-06
1.59174e-06
1.12336e-05
-1.55133e-06
1.55196e-06
1.12299e-05
-1.49436e-06
1.49805e-06
1.12228e-05
-1.40755e-06
1.41458e-06
1.12131e-05
-1.33795e-06
1.34773e-06
-1.15166e-06
1.16671e-06
1.03123e-05
5.02397e-08
1.0366e-05
-1.64935e-07
1.04229e-05
-3.74947e-07
1.04822e-05
-5.77511e-07
1.05433e-05
-7.70487e-07
1.06056e-05
-9.51908e-07
1.06684e-05
-1.11999e-06
1.07309e-05
-1.27318e-06
1.07928e-05
-1.41016e-06
1.08535e-05
-1.52987e-06
1.09125e-05
-1.63149e-06
1.09697e-05
-1.71449e-06
1.10247e-05
-1.77861e-06
1.10777e-05
-1.82382e-06
1.11288e-05
-1.85005e-06
1.11781e-05
-1.85537e-06
1.12252e-05
-1.8364e-06
1.12697e-05
-1.79202e-06
1.13112e-05
-1.72207e-06
1.13494e-05
-1.62688e-06
1.13838e-05
-1.50722e-06
1.1414e-05
-1.36433e-06
1.14397e-05
-1.19994e-06
1.14604e-05
-1.01627e-06
1.14758e-05
-8.1601e-07
1.14855e-05
-6.02302e-07
1.14892e-05
-3.78787e-07
1.14866e-05
-1.49746e-07
1.14776e-05
7.92427e-08
1.14618e-05
3.03876e-07
1.14394e-05
5.20785e-07
1.14103e-05
7.2698e-07
1.13746e-05
9.19934e-07
1.13324e-05
1.09762e-06
1.12838e-05
1.25852e-06
1.12293e-05
1.40159e-06
1.1169e-05
1.52622e-06
1.11035e-05
1.63216e-06
1.10331e-05
1.71936e-06
1.09583e-05
1.78791e-06
1.08794e-05
1.83786e-06
1.0797e-05
1.86909e-06
1.07118e-05
1.88133e-06
1.06246e-05
1.87465e-06
1.05363e-05
1.84943e-06
1.04478e-05
1.80595e-06
1.036e-05
1.74448e-06
1.02738e-05
1.66542e-06
1.01899e-05
1.56928e-06
1.01092e-05
1.45679e-06
1.00323e-05
1.3289e-06
9.96002e-06
1.18679e-06
9.89286e-06
1.03187e-06
9.83144e-06
8.65759e-07
9.7763e-06
6.90276e-07
9.72792e-06
5.07432e-07
9.68666e-06
3.19433e-07
9.65287e-06
1.28857e-07
9.62653e-06
-6.14664e-08
9.60738e-06
-2.49326e-07
9.5952e-06
-4.3276e-07
9.58968e-06
-6.09526e-07
9.59001e-06
-7.77329e-07
9.59595e-06
-9.34703e-07
9.60717e-06
-1.08001e-06
9.62284e-06
-1.21141e-06
9.64241e-06
-1.32783e-06
9.66541e-06
-1.42841e-06
9.69125e-06
-1.51238e-06
9.71942e-06
-1.57931e-06
9.74952e-06
-1.6291e-06
9.78139e-06
-1.66192e-06
9.81535e-06
-1.67746e-06
9.85147e-06
-1.67357e-06
9.88938e-06
-1.64973e-06
9.92881e-06
-1.60656e-06
9.96961e-06
-1.54489e-06
1.00117e-05
-1.46565e-06
1.0055e-05
-1.36993e-06
1.00996e-05
-1.25893e-06
1.01453e-05
-1.13401e-06
1.01922e-05
-9.96676e-07
1.02402e-05
-8.48612e-07
1.02891e-05
-6.91683e-07
1.03388e-05
-5.27918e-07
1.03888e-05
-3.5952e-07
1.04388e-05
-1.89063e-07
1.04882e-05
-1.94338e-08
1.05367e-05
1.4728e-07
1.05837e-05
3.09046e-07
1.06289e-05
4.63999e-07
1.06719e-05
6.10391e-07
1.07121e-05
7.4665e-07
1.07492e-05
8.71345e-07
1.0783e-05
9.832e-07
1.08133e-05
1.0814e-06
1.08397e-05
1.16516e-06
1.08622e-05
1.23389e-06
1.08809e-05
1.2875e-06
1.08955e-05
1.3263e-06
1.09061e-05
1.35101e-06
1.09135e-05
1.36276e-06
1.09197e-05
1.36084e-06
1.09232e-05
1.33945e-06
1.09249e-05
1.29949e-06
1.09257e-05
1.24216e-06
1.09266e-05
1.16808e-06
1.09283e-05
1.07789e-06
1.09313e-05
9.72342e-07
1.0936e-05
8.52379e-07
1.09428e-05
7.191e-07
1.0952e-05
5.73919e-07
1.09637e-05
4.18608e-07
1.09777e-05
2.55264e-07
1.09935e-05
8.62845e-08
1.10109e-05
-8.54312e-08
1.10291e-05
-2.56469e-07
1.10477e-05
-4.24326e-07
1.10664e-05
-5.86903e-07
1.10848e-05
-7.42241e-07
1.11023e-05
-8.8847e-07
1.11188e-05
-1.02406e-06
1.11338e-05
-1.1477e-06
1.11472e-05
-1.25815e-06
1.11587e-05
-1.3545e-06
1.11683e-05
-1.43615e-06
1.1176e-05
-1.50255e-06
1.11817e-05
-1.55345e-06
1.11854e-05
-1.58907e-06
1.11874e-05
-1.61029e-06
1.11875e-05
-1.61837e-06
1.1184e-05
-1.61333e-06
1.11771e-05
-1.5873e-06
1.11673e-05
-1.54158e-06
1.11549e-05
-1.48192e-06
1.11395e-05
-1.39214e-06
1.11216e-05
-1.32013e-06
-1.12932e-06
1.03114e-05
-3.82595e-09
1.03683e-05
-2.21759e-07
1.04272e-05
-4.33893e-07
1.04876e-05
-6.37925e-07
1.05488e-05
-8.31707e-07
1.06102e-05
-1.01329e-06
1.06711e-05
-1.1809e-06
1.0731e-05
-1.33302e-06
1.07892e-05
-1.46839e-06
1.08454e-05
-1.58606e-06
1.08992e-05
-1.68528e-06
1.09503e-05
-1.76561e-06
1.09987e-05
-1.82696e-06
1.10444e-05
-1.86953e-06
1.10878e-05
-1.8935e-06
1.11293e-05
-1.89681e-06
1.11684e-05
-1.87555e-06
1.12049e-05
-1.82854e-06
1.12386e-05
-1.7557e-06
1.12691e-05
-1.6574e-06
1.12963e-05
-1.5344e-06
1.13199e-05
-1.38791e-06
1.13396e-05
-1.21965e-06
1.13551e-05
-1.03181e-06
1.13662e-05
-8.27086e-07
1.13725e-05
-6.08642e-07
1.13739e-05
-3.80138e-07
1.137e-05
-1.45833e-07
1.13605e-05
8.8665e-08
1.13455e-05
3.18956e-07
1.13246e-05
5.41641e-07
1.12979e-05
7.53692e-07
1.12653e-05
9.52528e-07
1.12269e-05
1.13605e-06
1.11827e-05
1.30268e-06
1.1133e-05
1.4513e-06
1.1078e-05
1.58123e-06
1.1018e-05
1.69212e-06
1.09535e-05
1.7839e-06
1.08848e-05
1.85662e-06
1.08122e-05
1.91037e-06
1.07363e-05
1.94501e-06
1.06575e-05
1.96012e-06
1.05767e-05
1.95548e-06
1.04947e-05
1.93144e-06
1.04124e-05
1.88829e-06
1.03305e-05
1.82634e-06
1.02499e-05
1.74601e-06
1.01713e-05
1.64789e-06
1.00954e-05
1.53271e-06
1.00228e-05
1.40147e-06
9.95425e-06
1.25537e-06
9.89031e-06
1.09581e-06
9.83165e-06
9.24419e-07
9.77888e-06
7.43051e-07
9.73253e-06
5.53779e-07
9.69305e-06
3.5891e-07
9.66074e-06
1.6117e-07
9.63568e-06
-3.64064e-08
9.61785e-06
-2.31493e-07
9.60668e-06
-4.21591e-07
9.60152e-06
-6.0437e-07
9.60219e-06
-7.78e-07
9.60813e-06
-9.40644e-07
9.61867e-06
-1.09055e-06
9.63341e-06
-1.22614e-06
9.65165e-06
-1.34607e-06
9.67261e-06
-1.44937e-06
9.69567e-06
-1.53544e-06
9.7203e-06
-1.60394e-06
9.74612e-06
-1.65492e-06
9.77294e-06
-1.68874e-06
9.80109e-06
-1.70561e-06
9.83104e-06
-1.70352e-06
9.8625e-06
-1.68118e-06
9.89521e-06
-1.63927e-06
9.92903e-06
-1.57871e-06
9.96397e-06
-1.50059e-06
1.00001e-05
-1.40605e-06
1.00375e-05
-1.29634e-06
1.00763e-05
-1.17282e-06
1.01166e-05
-1.03693e-06
1.01583e-05
-8.90318e-07
1.02014e-05
-7.34786e-07
1.02457e-05
-5.72293e-07
1.02912e-05
-4.04948e-07
1.03373e-05
-2.35146e-07
1.03836e-05
-6.57333e-08
1.04297e-05
1.01128e-07
1.04753e-05
2.63474e-07
1.05198e-05
4.19433e-07
1.0563e-05
5.67258e-07
1.06043e-05
7.05361e-07
1.06433e-05
8.32296e-07
1.06797e-05
9.4677e-07
1.07133e-05
1.04783e-06
1.07438e-05
1.1347e-06
1.07709e-05
1.20679e-06
1.07945e-05
1.26388e-06
1.08147e-05
1.30613e-06
1.08316e-05
1.33404e-06
1.08461e-05
1.34832e-06
1.08596e-05
1.3473e-06
1.08716e-05
1.3275e-06
1.08821e-05
1.28896e-06
1.08918e-05
1.23242e-06
1.09014e-05
1.1585e-06
1.09114e-05
1.06791e-06
1.09223e-05
9.61434e-07
1.09346e-05
8.40077e-07
1.09486e-05
7.05154e-07
1.09642e-05
5.58292e-07
1.09814e-05
4.01417e-07
1.09999e-05
2.36751e-07
1.10193e-05
6.68262e-08
1.10392e-05
-1.05271e-07
1.10589e-05
-2.76135e-07
1.10779e-05
-4.43413e-07
1.1096e-05
-6.05004e-07
1.11128e-05
-7.58958e-07
1.11278e-05
-9.0348e-07
1.11408e-05
-1.03709e-06
1.11516e-05
-1.15849e-06
1.116e-05
-1.26654e-06
1.11658e-05
-1.36037e-06
1.11691e-05
-1.43939e-06
1.11698e-05
-1.5033e-06
1.11684e-05
-1.55202e-06
1.11651e-05
-1.58581e-06
1.11602e-05
-1.6054e-06
1.11531e-05
-1.61122e-06
1.11406e-05
-1.60083e-06
1.11248e-05
-1.57156e-06
1.11066e-05
-1.52331e-06
1.10859e-05
-1.46125e-06
1.10626e-05
-1.36886e-06
1.10372e-05
-1.29475e-06
-1.10027e-06
1.03296e-05
-6.12315e-08
1.03889e-05
-2.80977e-07
1.04492e-05
-4.94249e-07
1.051e-05
-6.9873e-07
1.05706e-05
-8.92283e-07
1.06303e-05
-1.07302e-06
1.06886e-05
-1.23917e-06
1.07449e-05
-1.38931e-06
1.07987e-05
-1.52223e-06
1.08497e-05
-1.63708e-06
1.08976e-05
-1.73314e-06
1.0942e-05
-1.81004e-06
1.0983e-05
-1.86795e-06
1.10208e-05
-1.90734e-06
1.1056e-05
-1.92872e-06
1.10891e-05
-1.92987e-06
1.11197e-05
-1.9062e-06
1.11477e-05
-1.8565e-06
1.11729e-05
-1.78088e-06
1.11952e-05
-1.67976e-06
1.12147e-05
-1.55388e-06
1.12312e-05
-1.40442e-06
1.12446e-05
-1.23303e-06
1.12547e-05
-1.04187e-06
1.12612e-05
-8.33621e-07
1.1264e-05
-6.11443e-07
1.12628e-05
-3.78986e-07
1.12575e-05
-1.40492e-07
1.12477e-05
9.84629e-08
1.12333e-05
3.33394e-07
1.1214e-05
5.60893e-07
1.11898e-05
7.779e-07
1.11605e-05
9.81796e-07
1.11262e-05
1.17043e-06
1.10867e-05
1.34215e-06
1.10422e-05
1.49577e-06
1.09929e-05
1.6305e-06
1.09391e-05
1.74594e-06
1.08811e-05
1.84192e-06
1.08192e-05
1.91848e-06
1.07539e-05
1.97568e-06
1.06854e-05
2.0135e-06
1.06141e-05
2.03144e-06
1.05407e-05
2.0289e-06
1.0466e-05
2.00616e-06
1.03907e-05
1.96354e-06
1.03157e-05
1.90139e-06
1.02415e-05
1.82016e-06
1.01689e-05
1.72046e-06
1.00986e-05
1.60304e-06
1.00312e-05
1.46886e-06
9.96749e-06
1.31909e-06
9.90816e-06
1.15514e-06
9.85391e-06
9.78671e-07
9.80533e-06
7.91635e-07
9.76289e-06
5.96222e-07
9.72691e-06
3.94886e-07
9.69755e-06
1.90524e-07
9.67477e-06
-1.36264e-08
9.65829e-06
-2.15012e-07
9.64789e-06
-4.11183e-07
9.64333e-06
-5.99809e-07
9.64411e-06
-7.78784e-07
9.64961e-06
-9.46141e-07
9.65914e-06
-1.10008e-06
9.67206e-06
-1.23906e-06
9.68786e-06
-1.36186e-06
9.70597e-06
-1.46748e-06
9.72582e-06
-1.55529e-06
9.74694e-06
-1.62506e-06
9.76892e-06
-1.6769e-06
9.79144e-06
-1.71126e-06
9.81469e-06
-1.72886e-06
9.83928e-06
-1.72811e-06
9.86486e-06
-1.70677e-06
9.89107e-06
-1.66549e-06
9.91789e-06
-1.60553e-06
9.94552e-06
-1.52822e-06
9.97424e-06
-1.43477e-06
1.00043e-05
-1.32641e-06
1.00359e-05
-1.2044e-06
1.00691e-05
-1.07016e-06
1.01041e-05
-9.25297e-07
1.01409e-05
-7.71565e-07
1.01794e-05
-6.1084e-07
1.02196e-05
-4.45134e-07
1.02611e-05
-2.7668e-07
1.03036e-05
-1.08211e-07
1.03467e-05
5.80301e-08
1.039e-05
2.20147e-07
1.04332e-05
3.7629e-07
1.04757e-05
5.2472e-07
1.05172e-05
6.63843e-07
1.05573e-05
7.92198e-07
1.05956e-05
9.08493e-07
1.06318e-05
1.01168e-06
1.06655e-05
1.10094e-06
1.06967e-05
1.17565e-06
1.0725e-05
1.23549e-06
1.07507e-05
1.28045e-06
1.0774e-05
1.31081e-06
1.07954e-05
1.32689e-06
1.08158e-05
1.32687e-06
1.08352e-05
1.30817e-06
1.08535e-05
1.27063e-06
1.08712e-05
1.21471e-06
1.08888e-05
1.14093e-06
1.09067e-05
1.04996e-06
1.09254e-05
9.42753e-07
1.0945e-05
8.20469e-07
1.09656e-05
6.84563e-07
1.09871e-05
5.36796e-07
1.10093e-05
3.79217e-07
1.10319e-05
2.14156e-07
1.10544e-05
4.4276e-08
1.10763e-05
-1.2712e-07
1.10969e-05
-2.96788e-07
1.1116e-05
-4.62461e-07
1.1133e-05
-6.2205e-07
1.11477e-05
-7.73642e-07
1.11598e-05
-9.15533e-07
1.1169e-05
-1.04628e-06
1.11752e-05
-1.16467e-06
1.11783e-05
-1.26968e-06
1.11784e-05
-1.36052e-06
1.11757e-05
-1.43663e-06
1.11701e-05
-1.49773e-06
1.11619e-05
-1.54384e-06
1.11515e-05
-1.57538e-06
1.11389e-05
-1.59279e-06
1.11228e-05
-1.59515e-06
1.11023e-05
-1.58029e-06
1.10786e-05
-1.5479e-06
1.10525e-05
-1.49713e-06
1.1024e-05
-1.43282e-06
1.09933e-05
-1.33816e-06
1.09609e-05
-1.26231e-06
-1.06507e-06
1.03676e-05
1.04285e-05
1.04895e-05
1.05499e-05
1.0609e-05
1.06663e-05
1.0721e-05
1.07729e-05
1.08215e-05
1.08667e-05
1.09079e-05
1.09452e-05
1.09783e-05
1.10076e-05
1.1034e-05
1.10583e-05
1.108e-05
1.10989e-05
1.11151e-05
1.11288e-05
1.11402e-05
1.11493e-05
1.11561e-05
1.11605e-05
1.11623e-05
1.11615e-05
1.11577e-05
1.11509e-05
1.11408e-05
1.1127e-05
1.11095e-05
1.10879e-05
1.10621e-05
1.1032e-05
1.09975e-05
1.09587e-05
1.09156e-05
1.08684e-05
1.08174e-05
1.07631e-05
1.07058e-05
1.06456e-05
1.05826e-05
1.05176e-05
1.0451e-05
1.03837e-05
1.03162e-05
1.02494e-05
1.01838e-05
1.01201e-05
1.00593e-05
1.00019e-05
9.94868e-06
9.90025e-06
9.85708e-06
9.81956e-06
9.78792e-06
9.76225e-06
9.74248e-06
9.72837e-06
9.71967e-06
9.71606e-06
9.71705e-06
9.72206e-06
9.73048e-06
9.74171e-06
9.75519e-06
9.77027e-06
9.78649e-06
9.80339e-06
9.82057e-06
9.83778e-06
9.8552e-06
9.8739e-06
9.89363e-06
9.91377e-06
9.93427e-06
9.95526e-06
9.97694e-06
9.99962e-06
1.00237e-05
1.00495e-05
1.00775e-05
1.01076e-05
1.01399e-05
1.01744e-05
1.02108e-05
1.02489e-05
1.02883e-05
1.03287e-05
1.03698e-05
1.0411e-05
1.04521e-05
1.04926e-05
1.0532e-05
1.05702e-05
1.06067e-05
1.06414e-05
1.06741e-05
1.07048e-05
1.07336e-05
1.07611e-05
1.07879e-05
1.0814e-05
1.08395e-05
1.08648e-05
1.08901e-05
1.09157e-05
1.09416e-05
1.09679e-05
1.09945e-05
1.10213e-05
1.10479e-05
1.10741e-05
1.10991e-05
1.11225e-05
1.11437e-05
1.11623e-05
1.1178e-05
1.11905e-05
1.11995e-05
1.12048e-05
1.12064e-05
1.12043e-05
1.11986e-05
1.11895e-05
1.11773e-05
1.11622e-05
1.11445e-05
1.11238e-05
1.10991e-05
1.10707e-05
1.10393e-05
1.10055e-05
1.09698e-05
1.09322e-05
1.08932e-05
5.97879e-07
8.63259e-08
5.15607e-07
8.22722e-08
4.39861e-07
7.57462e-08
3.72959e-07
6.69015e-08
3.16955e-07
5.60036e-08
2.73711e-07
4.32448e-08
2.4491e-07
2.8801e-08
2.3189e-07
1.30194e-08
2.33953e-07
-2.06326e-09
2.49676e-07
-1.57226e-08
2.79555e-07
-2.98792e-08
3.22991e-07
-4.34361e-08
3.78765e-07
-5.57738e-08
4.45199e-07
-6.64343e-08
5.20309e-07
-7.51097e-08
6.01898e-07
-8.1589e-08
6.87678e-07
-8.57795e-08
7.75435e-07
-8.77575e-08
8.63186e-07
-8.77506e-08
9.49223e-07
-8.60369e-08
1.03212e-06
-8.28969e-08
1.11073e-06
-7.86091e-08
1.18422e-06
-7.34955e-08
1.25209e-06
-6.78684e-08
1.31402e-06
-6.19245e-08
1.36985e-06
-5.58294e-08
1.4196e-06
-4.97581e-08
1.46347e-06
-4.38688e-08
1.50176e-06
-3.82889e-08
1.53487e-06
-3.31067e-08
1.56325e-06
-2.83809e-08
1.5874e-06
-2.41521e-08
1.60784e-06
-2.04413e-08
1.62509e-06
-1.72421e-08
1.63952e-06
-1.44338e-08
1.65139e-06
-1.18684e-08
1.66119e-06
-9.80027e-09
1.66924e-06
-8.05511e-09
1.67561e-06
-6.36834e-09
1.68021e-06
-4.60138e-09
1.68281e-06
-2.59813e-09
1.68298e-06
-1.69583e-10
1.68087e-06
2.11268e-09
1.67584e-06
5.03014e-09
1.66747e-06
8.36823e-09
1.6554e-06
1.20649e-08
1.63951e-06
1.58917e-08
1.61977e-06
1.97383e-08
1.59613e-06
2.36412e-08
1.56848e-06
2.76487e-08
1.53667e-06
3.1811e-08
1.5005e-06
3.61747e-08
1.45974e-06
4.07573e-08
1.41421e-06
4.55298e-08
1.36381e-06
5.04054e-08
1.3086e-06
5.52073e-08
1.24895e-06
5.96496e-08
1.18553e-06
6.34147e-08
1.11931e-06
6.62273e-08
1.05144e-06
6.78656e-08
9.83249e-07
6.81927e-08
9.16075e-07
6.71743e-08
8.51199e-07
6.48756e-08
7.89691e-07
6.15079e-08
7.32476e-07
5.72143e-08
6.80473e-07
5.20032e-08
6.34543e-07
4.59298e-08
5.95445e-07
3.90979e-08
5.63855e-07
3.15908e-08
5.40456e-07
2.33982e-08
5.25839e-07
1.46177e-08
5.20374e-07
5.4645e-09
5.23066e-07
-2.69171e-09
5.33614e-07
-1.05482e-08
5.51903e-07
-1.82887e-08
5.77391e-07
-2.54882e-08
6.09261e-07
-3.18698e-08
6.46527e-07
-3.72663e-08
6.88114e-07
-4.15865e-08
7.3288e-07
-4.47661e-08
7.79638e-07
-4.67583e-08
8.27204e-07
-4.75655e-08
8.74501e-07
-4.72973e-08
9.20655e-07
-4.61538e-08
9.64981e-07
-4.4326e-08
1.00693e-06
-4.19527e-08
1.04608e-06
-3.9147e-08
1.08212e-06
-3.60395e-08
1.11489e-06
-3.27732e-08
1.14435e-06
-2.94617e-08
1.17054e-06
-2.61863e-08
1.19354e-06
-2.29985e-08
1.21348e-06
-1.99369e-08
1.23051e-06
-1.70373e-08
1.24483e-06
-1.43209e-08
1.25663e-06
-1.17947e-08
1.26607e-06
-9.43933e-09
1.27333e-06
-7.26172e-09
1.27865e-06
-5.31767e-09
1.28214e-06
-3.49121e-09
1.28381e-06
-1.67331e-09
1.28384e-06
-2.59207e-11
1.2827e-06
1.1431e-09
1.28036e-06
2.33249e-09
1.277e-06
3.36777e-09
1.27288e-06
4.11907e-09
1.26826e-06
4.62082e-09
1.26328e-06
4.97482e-09
1.25808e-06
5.19613e-09
1.25283e-06
5.24989e-09
1.24772e-06
5.11297e-09
1.24292e-06
4.79742e-09
1.23861e-06
4.31819e-09
1.23493e-06
3.68052e-09
1.23204e-06
2.88295e-09
1.23009e-06
1.95721e-09
1.22913e-06
9.50828e-10
1.22917e-06
-4.04349e-11
1.23014e-06
-9.68694e-10
1.23208e-06
-1.93381e-09
1.23487e-06
-2.79078e-09
1.23842e-06
-3.55112e-09
1.24263e-06
-4.20952e-09
1.2474e-06
-4.77587e-09
1.25266e-06
-5.25278e-09
1.25827e-06
-5.60911e-09
1.26413e-06
-5.86245e-09
1.27015e-06
-6.02022e-09
1.27623e-06
-6.0775e-09
1.28226e-06
-6.0341e-09
1.28815e-06
-5.88867e-09
1.2938e-06
-5.64932e-09
1.29916e-06
-5.35718e-09
1.30417e-06
-5.01287e-09
1.30885e-06
-4.68183e-09
1.31298e-06
-4.1282e-09
1.31669e-06
-3.71593e-09
-2.1873e-09
2.17152e-06
1.66783e-07
2.10262e-06
1.51173e-07
2.04686e-06
1.31505e-07
2.00511e-06
1.08651e-07
1.97766e-06
8.34564e-08
1.96438e-06
5.6529e-08
1.9653e-06
2.78814e-08
1.97927e-06
-9.51989e-10
2.00739e-06
-3.01897e-08
2.05146e-06
-5.97832e-08
2.11093e-06
-8.93553e-08
2.18529e-06
-1.17794e-07
2.27345e-06
-1.43936e-07
2.37384e-06
-1.66826e-07
2.48452e-06
-1.85786e-07
2.60323e-06
-2.003e-07
2.72741e-06
-2.09956e-07
2.85433e-06
-2.14679e-07
2.98139e-06
-2.14811e-07
3.10635e-06
-2.10996e-07
3.22734e-06
-2.03892e-07
3.34271e-06
-1.93979e-07
3.45101e-06
-1.81791e-07
3.55106e-06
-1.6792e-07
3.64192e-06
-1.52788e-07
3.72287e-06
-1.36781e-07
3.79348e-06
-1.20362e-07
3.85359e-06
-1.03984e-07
3.90334e-06
-8.8032e-08
3.94304e-06
-7.28129e-08
3.97323e-06
-5.85699e-08
3.9946e-06
-4.55239e-08
4.00805e-06
-3.38821e-08
4.01455e-06
-2.3743e-08
4.01483e-06
-1.47204e-08
4.00916e-06
-6.19646e-09
3.99776e-06
1.60068e-09
3.98121e-06
8.49663e-09
3.96026e-06
1.45786e-08
3.93531e-06
2.0349e-08
3.90645e-06
2.62626e-08
3.87374e-06
3.25376e-08
3.83667e-06
3.91875e-08
3.79538e-06
4.63195e-08
3.74993e-06
5.38137e-08
3.7005e-06
6.14976e-08
3.64733e-06
6.9064e-08
3.59073e-06
7.63331e-08
3.53102e-06
8.33524e-08
3.46844e-06
9.02349e-08
3.40311e-06
9.71345e-08
3.33508e-06
1.04206e-07
3.26432e-06
1.11515e-07
3.19086e-06
1.18992e-07
3.11481e-06
1.26459e-07
3.03646e-06
1.33556e-07
2.95642e-06
1.39684e-07
2.87566e-06
1.44181e-07
2.79536e-06
1.46522e-07
2.71686e-06
1.46369e-07
2.6415e-06
1.43547e-07
2.57065e-06
1.38031e-07
2.5056e-06
1.29921e-07
2.44772e-06
1.19395e-07
2.39818e-06
1.06747e-07
2.35778e-06
9.24106e-08
2.32683e-06
7.68764e-08
2.30537e-06
6.05609e-08
2.29328e-06
4.36772e-08
2.29062e-06
2.606e-08
2.29752e-06
7.71375e-09
2.31279e-06
-9.80623e-09
2.33768e-06
-2.75799e-08
2.37214e-06
-4.50032e-08
2.41556e-06
-6.17116e-08
2.46721e-06
-7.71393e-08
2.52614e-06
-9.0805e-08
2.59124e-06
-1.02366e-07
2.66126e-06
-1.11605e-07
2.73486e-06
-1.18363e-07
2.81058e-06
-1.22474e-07
2.88678e-06
-1.23766e-07
2.96194e-06
-1.22463e-07
3.03494e-06
-1.19152e-07
3.10487e-06
-1.14255e-07
3.17095e-06
-1.08031e-07
3.23251e-06
-1.00709e-07
3.28902e-06
-9.25512e-08
3.34013e-06
-8.3884e-08
3.38568e-06
-7.50131e-08
3.42566e-06
-6.61612e-08
3.46014e-06
-5.74781e-08
3.48929e-06
-4.90852e-08
3.51335e-06
-4.10997e-08
3.53264e-06
-3.36154e-08
3.54753e-06
-2.66789e-08
3.55835e-06
-2.02588e-08
3.56545e-06
-1.43679e-08
3.56953e-06
-9.4005e-09
3.57081e-06
-4.76442e-09
3.56934e-06
-2.09942e-10
3.56545e-06
3.87235e-09
3.55931e-06
7.28408e-09
3.55133e-06
1.03073e-08
3.54187e-06
1.28249e-08
3.5315e-06
1.449e-08
3.52066e-06
1.54605e-08
3.50949e-06
1.61485e-08
3.49808e-06
1.66027e-08
3.48667e-06
1.66647e-08
3.47553e-06
1.62473e-08
3.46492e-06
1.54085e-08
3.45502e-06
1.42222e-08
3.44599e-06
1.27086e-08
3.43801e-06
1.08668e-08
3.43117e-06
8.79421e-09
3.42549e-06
6.63103e-09
3.42098e-06
4.46485e-09
3.41769e-06
2.32124e-09
3.41557e-06
1.88247e-10
3.41433e-06
-1.54498e-09
3.41382e-06
-3.04731e-09
3.41395e-06
-4.33943e-09
3.4146e-06
-5.42873e-09
3.41565e-06
-6.30078e-09
3.41697e-06
-6.92249e-09
3.41842e-06
-7.31898e-09
3.41988e-06
-7.48091e-09
3.42123e-06
-7.42054e-09
3.42233e-06
-7.14151e-09
3.42309e-06
-6.64442e-09
3.42337e-06
-5.93457e-09
3.42313e-06
-5.11013e-09
3.42228e-06
-4.16494e-09
3.42082e-06
-3.21833e-09
3.4185e-06
-1.81101e-09
3.41553e-06
-7.42665e-10
2.17355e-09
3.98023e-06
2.29718e-07
3.92539e-06
2.06016e-07
3.87935e-06
1.77539e-07
3.84267e-06
1.45329e-07
3.8159e-06
1.10233e-07
3.79973e-06
7.26917e-08
3.79469e-06
3.29227e-08
3.80157e-06
-7.82824e-09
3.8214e-06
-5.00235e-08
3.85493e-06
-9.33107e-08
3.90238e-06
-1.36804e-07
3.96357e-06
-1.78982e-07
4.03773e-06
-2.18097e-07
4.12362e-06
-2.52716e-07
4.21973e-06
-2.819e-07
4.32438e-06
-3.04948e-07
4.43568e-06
-3.21251e-07
4.55167e-06
-3.30674e-07
4.67046e-06
-3.336e-07
4.79034e-06
-3.30872e-07
4.90973e-06
-3.2329e-07
5.02717e-06
-3.11416e-07
5.14136e-06
-2.95985e-07
5.25111e-06
-2.77664e-07
5.35509e-06
-2.56767e-07
5.45216e-06
-2.33858e-07
5.5414e-06
-2.09599e-07
5.62204e-06
-1.84621e-07
5.69349e-06
-1.59485e-07
5.75531e-06
-1.34638e-07
5.80718e-06
-1.10434e-07
5.84887e-06
-8.72148e-08
5.88036e-06
-6.53769e-08
5.90197e-06
-4.53464e-08
5.91442e-06
-2.7175e-08
5.91836e-06
-1.0132e-08
5.9141e-06
5.86195e-09
5.90116e-06
2.14278e-08
5.87961e-06
3.61342e-08
5.84973e-06
5.02255e-08
5.81194e-06
6.40586e-08
5.7667e-06
7.77784e-08
5.71448e-06
9.14077e-08
5.65594e-06
1.04852e-07
5.59185e-06
1.17903e-07
5.5231e-06
1.30248e-07
5.45062e-06
1.4155e-07
5.37535e-06
1.51603e-07
5.29828e-06
1.60422e-07
5.22028e-06
1.6823e-07
5.14199e-06
1.75424e-07
5.06372e-06
1.82481e-07
4.98549e-06
1.8974e-07
4.90726e-06
1.97221e-07
4.82891e-06
2.04818e-07
4.7504e-06
2.12061e-07
4.67213e-06
2.17958e-07
4.5948e-06
2.21505e-07
4.51935e-06
2.21974e-07
4.44682e-06
2.189e-07
4.37831e-06
2.12052e-07
4.31486e-06
2.01485e-07
4.2573e-06
1.87483e-07
4.20623e-06
1.70462e-07
4.16205e-06
1.50924e-07
4.12501e-06
1.29456e-07
4.09523e-06
1.06654e-07
4.07283e-06
8.2961e-08
4.058e-06
5.85078e-08
4.05097e-06
3.30871e-08
4.05245e-06
6.23552e-09
4.06235e-06
-1.97061e-08
4.08139e-06
-4.66242e-08
4.10959e-06
-7.32019e-08
4.14675e-06
-9.88729e-08
4.19245e-06
-1.22832e-07
4.24599e-06
-1.44351e-07
4.30656e-06
-1.62929e-07
4.37323e-06
-1.78281e-07
4.44506e-06
-1.90195e-07
4.52096e-06
-1.98369e-07
4.59938e-06
-2.02184e-07
4.67883e-06
-2.01919e-07
4.7582e-06
-1.98514e-07
4.83654e-06
-1.92601e-07
4.91312e-06
-1.84607e-07
4.98716e-06
-1.74755e-07
5.05794e-06
-1.63325e-07
5.12488e-06
-1.5083e-07
5.18764e-06
-1.37764e-07
5.24592e-06
-1.24443e-07
5.29948e-06
-1.11041e-07
5.3481e-06
-9.7703e-08
5.3916e-06
-8.46061e-08
5.42992e-06
-7.19312e-08
5.46305e-06
-5.98133e-08
5.49108e-06
-4.82889e-08
5.51419e-06
-3.74771e-08
5.53254e-06
-2.77457e-08
5.54628e-06
-1.85099e-08
5.55589e-06
-9.81327e-09
5.5617e-06
-1.94282e-09
5.56428e-06
4.70458e-09
5.56363e-06
1.09554e-08
5.56001e-06
1.64522e-08
5.55376e-06
2.07401e-08
5.54529e-06
2.39267e-08
5.53501e-06
2.64301e-08
5.52335e-06
2.82628e-08
5.51077e-06
2.92488e-08
5.49771e-06
2.92997e-08
5.48452e-06
2.85995e-08
5.47143e-06
2.73123e-08
5.45872e-06
2.54249e-08
5.44677e-06
2.28154e-08
5.43588e-06
1.96782e-08
5.42616e-06
1.63522e-08
5.41763e-06
1.29961e-08
5.41024e-06
9.71277e-09
5.40387e-06
6.55254e-09
5.39854e-06
3.79064e-09
5.39407e-06
1.42582e-09
5.39035e-06
-6.28221e-10
5.3873e-06
-2.36934e-09
5.38471e-06
-3.71118e-09
5.38245e-06
-4.6641e-09
5.38042e-06
-5.28697e-09
5.3784e-06
-5.46577e-09
5.37624e-06
-5.26366e-09
5.37378e-06
-4.679e-09
5.37085e-06
-3.71421e-09
5.3673e-06
-2.38779e-09
5.36306e-06
-8.6742e-10
5.35801e-06
8.82404e-10
5.35208e-06
2.71554e-09
5.34506e-06
5.2048e-09
5.33728e-06
7.03753e-09
1.14083e-08
5.81939e-06
2.75068e-07
5.78003e-06
2.45384e-07
5.74706e-06
2.10502e-07
5.72108e-06
1.71313e-07
5.70267e-06
1.28639e-07
5.69221e-06
8.31549e-08
5.68972e-06
3.54079e-08
5.69612e-06
-1.42241e-08
5.71164e-06
-6.55447e-08
5.73637e-06
-1.18037e-07
5.77031e-06
-1.70747e-07
5.81311e-06
-2.21783e-07
5.86403e-06
-2.69014e-07
5.92212e-06
-3.10806e-07
5.98648e-06
-3.46263e-07
6.05629e-06
-3.74756e-07
6.13068e-06
-3.95645e-07
6.20855e-06
-4.08538e-07
6.28868e-06
-4.13731e-07
6.37058e-06
-4.12775e-07
6.45381e-06
-4.06518e-07
6.53752e-06
-3.95127e-07
6.62121e-06
-3.79673e-07
6.7049e-06
-3.61351e-07
6.78747e-06
-3.39335e-07
6.86773e-06
-3.14127e-07
6.94497e-06
-2.86836e-07
7.01852e-06
-2.58171e-07
7.08777e-06
-2.28736e-07
7.15213e-06
-1.98998e-07
7.21097e-06
-1.69268e-07
7.26354e-06
-1.39782e-07
7.30893e-06
-1.10769e-07
7.34617e-06
-8.25881e-08
7.37464e-06
-5.56473e-08
7.39466e-06
-3.01468e-08
7.40678e-06
-6.25997e-09
7.41088e-06
1.73295e-08
7.40684e-06
4.01716e-08
7.39474e-06
6.23256e-08
7.3751e-06
8.37028e-08
7.34845e-06
1.04422e-07
7.31531e-06
1.24547e-07
7.27627e-06
1.43891e-07
7.2319e-06
1.62276e-07
7.18261e-06
1.79536e-07
7.12866e-06
1.95505e-07
7.07018e-06
2.10078e-07
7.00734e-06
2.23266e-07
6.94036e-06
2.35206e-07
6.86965e-06
2.46137e-07
6.79577e-06
2.56359e-07
6.71949e-06
2.66021e-07
6.642e-06
2.74707e-07
6.5645e-06
2.82326e-07
6.48794e-06
2.88621e-07
6.41314e-06
2.92754e-07
6.34075e-06
2.93894e-07
6.27127e-06
2.91452e-07
6.20522e-06
2.84955e-07
6.14316e-06
2.74117e-07
6.08557e-06
2.59071e-07
6.03279e-06
2.40262e-07
5.985e-06
2.18254e-07
5.94233e-06
1.93588e-07
5.90498e-06
1.66809e-07
5.87309e-06
1.38542e-07
5.8468e-06
1.09256e-07
5.82624e-06
7.90678e-08
5.81149e-06
4.78342e-08
5.80236e-06
1.53673e-08
5.80023e-06
-1.75766e-08
5.80481e-06
-5.12076e-08
5.81636e-06
-8.47501e-08
5.83485e-06
-1.17357e-07
5.86002e-06
-1.48003e-07
5.89148e-06
-1.75816e-07
5.92882e-06
-2.00272e-07
5.97177e-06
-2.21228e-07
6.0202e-06
-2.38626e-07
6.07392e-06
-2.52088e-07
6.131e-06
-2.59259e-07
6.19006e-06
-2.60981e-07
6.25095e-06
-2.59409e-07
6.31349e-06
-2.55134e-07
6.37737e-06
-2.4849e-07
6.44184e-06
-2.39222e-07
6.50581e-06
-2.27303e-07
6.56858e-06
-2.136e-07
6.62987e-06
-1.99051e-07
6.6894e-06
-1.83969e-07
6.74677e-06
-1.68419e-07
6.80155e-06
-1.52474e-07
6.85327e-06
-1.36329e-07
6.90161e-06