/*--------------------------------*- C++ -*----------------------------------*\
| =========                 |                                                 |
| \\      /  F ield         | OpenFOAM: The Open Source CFD Toolbox           |
|  \\    /   O peration     | Version:  2206                                  |
|   \\  /    A nd           | Website:  www.openfoam.com                      |
|    \\/     M anipulation  |                                                 |
\*---------------------------------------------------------------------------*/
FoamFile
{
    version     2.0;
    format      ascii;
    arch        "LSB;label=32;scalar=64";
    class       volVectorField;
    location    "18.3999";
    object      ddt0(U);
}
// * * * * * * * * * * * * * * * * * * * * * * * * * * * * * * * * * * * * * //

dimensions      [0 1 -2 0 0 0 0];

internalField   nonuniform List<vector> 
1814
(
(-58.0522 99.1187 0)
(-24.9254 74.0718 0)
(-1.67951 50.5816 0)
(60.0134 19.2134 0)
(98.0119 -8.71189 0)
(133.699 -27.072 0)
(158.295 -34.9284 0)
(167.675 -31.6557 0)
(164.358 -20.6411 0)
(153.228 -7.96415 0)
(136.5 1.80602 0)
(117.259 6.11398 0)
(98.2344 3.80215 0)
(81.0108 -5.05651 0)
(65.9762 -20.0393 0)
(51.21 -39.2517 0)
(36.4895 -58.3316 0)
(22.5169 -75.3622 0)
(8.23588 -88.3085 0)
(-6.14453 -95.8064 0)
(-19.702 -96.5083 0)
(-31.7161 -91.2452 0)
(-42.2009 -81.6849 0)
(-50.994 -68.6906 0)
(-58.2584 -53.1946 0)
(-64.5103 -35.9908 0)
(-69.4439 -17.8369 0)
(-72.6801 0.438912 0)
(-74.8 18.3756 0)
(-75.7732 35.2418 0)
(-76.1767 50.5389 0)
(-76.5545 64.3805 0)
(-76.3665 76.2516 0)
(-73.4148 83.9903 0)
(-66.1078 85.821 0)
(-54.9545 82.8658 0)
(-40.7458 75.7392 0)
(-24.5273 65.8545 0)
(-5.00665 54.6806 0)
(19.3217 39.3337 0)
(43.6542 20.5009 0)
(65.2484 4.34948 0)
(80.1397 -7.01362 0)
(86.0559 -12.5938 0)
(84.0415 -13.2833 0)
(78.3879 -11.8011 0)
(70.5806 -10.3296 0)
(61.8622 -10.109 0)
(53.1363 -11.7537 0)
(44.8054 -15.4536 0)
(36.8303 -21.0739 0)
(28.8423 -27.9996 0)
(20.5198 -34.976 0)
(12.2551 -41.3659 0)
(3.99027 -46.4476 0)
(-4.1789 -49.2951 0)
(-11.8076 -49.1639 0)
(-18.6942 -46.4777 0)
(-24.7995 -41.6836 0)
(-30.0612 -35.1619 0)
(-34.5854 -27.3188 0)
(-38.5138 -18.5147 0)
(-41.5768 -9.13201 0)
(-43.9008 0.428325 0)
(-45.6932 10.086 0)
(-46.8696 19.6491 0)
(-47.3294 28.7577 0)
(-46.6478 36.8358 0)
(-43.8404 42.8128 0)
(-38.2334 45.8782 0)
(-30.4682 46.5604 0)
(-21.0345 45.06 0)
(-10.5139 41.7448 0)
(1.21865 36.9133 0)
(13.6546 29.9297 0)
(25.1055 21.8456 0)
(34.6888 14.5625 0)
(41.4212 8.43246 0)
(45.142 3.52363 0)
(45.9089 -0.164859 0)
(44.8375 -3.03969 0)
(42.5646 -5.78525 0)
(39.3896 -8.77618 0)
(35.5246 -12.0322 0)
(31.11 -15.5166 0)
(26.1941 -19.1805 0)
(20.7849 -22.8885 0)
(14.9349 -26.3845 0)
(8.79046 -29.2185 0)
(2.62898 -30.9883 0)
(-3.27702 -31.3399 0)
(-8.72296 -30.2254 0)
(-13.5799 -27.7389 0)
(-17.7619 -24.085 0)
(-21.2586 -19.5209 0)
(-24.1232 -14.3083 0)
(-26.3963 -8.70355 0)
(-27.964 -2.96727 0)
(-29.0521 2.71497 0)
(-29.6766 8.31526 0)
(-29.7218 13.6659 0)
(-29.0013 18.4645 0)
(-27.2445 22.3594 0)
(-24.1695 24.992 0)
(-20.0406 26.5482 0)
(-15.013 27.0238 0)
(-9.40935 26.4167 0)
(-3.43488 24.8718 0)
(2.88383 22.4899 0)
(9.24959 19.1453 0)
(15.044 15.1977 0)
(19.9915 11.3365 0)
(23.7412 7.69082 0)
(26.1769 4.27865 0)
(27.3716 1.14881 0)
(27.3792 -1.68482 0)
(26.5829 -4.37361 0)
(25.0554 -7.05769 0)
(22.8947 -9.72744 0)
(20.1806 -12.3354 0)
(16.9648 -14.8618 0)
(-36.8897 66.0317 0)
(2.54651 38.2693 0)
(52.0483 5.21221 0)
(102.632 -30.2882 0)
(137.708 -49.8412 0)
(161.688 -54.9729 0)
(169.136 -46.9702 0)
(164.938 -30.1538 0)
(153.383 -9.72748 0)
(136.853 9.1135 0)
(118.71 21.7341 0)
(101.801 25.7884 0)
(87.2981 21.3514 0)
(75.2002 10.0273 0)
(64.6724 -6.22544 0)
(53.8416 -25.5335 0)
(40.8479 -44.3278 0)
(27.2954 -60.8867 0)
(12.6842 -73.4397 0)
(-2.47356 -80.8502 0)
(-17.4661 -82.5765 0)
(-31.4132 -78.6056 0)
(-44.0667 -70.5699 0)
(-55.3083 -59.1595 0)
(-65.0603 -45.125 0)
(-72.9824 -29.3013 0)
(-79.1618 -12.7796 0)
(-84.1125 3.89942 0)
(-88.1388 20.54 0)
(-91.4907 36.7699 0)
(-93.8742 52.1818 0)
(-94.0436 65.5132 0)
(-88.2126 73.2273 0)
(-76.988 75.5635 0)
(-60.9985 72.6166 0)
(-42.2586 65.3613 0)
(-21.3555 56.1063 0)
(4.14235 44.595 0)
(30.2804 26.8267 0)
(53.6609 10.649 0)
(70.6877 -1.40857 0)
(79.4914 -8.43158 0)
(79.6167 -10.4306 0)
(75.9236 -8.99448 0)
(69.9818 -6.05902 0)
(63.2953 -3.35696 0)
(56.7651 -1.87084 0)
(50.7955 -2.17618 0)
(45.4361 -4.50562 0)
(40.4185 -8.68491 0)
(35.2694 -14.2601 0)
(29.4895 -20.6648 0)
(22.7639 -27.2323 0)
(15.0833 -33.1465 0)
(6.86585 -37.9259 0)
(-1.65731 -40.8254 0)
(-10.1043 -41.2936 0)
(-18.1162 -39.268 0)
(-25.5361 -35.2675 0)
(-32.2837 -29.5566 0)
(-38.2105 -22.4128 0)
(-43.3293 -14.3707 0)
(-47.7887 -5.82964 0)
(-51.5389 3.14507 0)
(-54.3671 12.3629 0)
(-55.7268 21.2167 0)
(-54.7028 28.6663 0)
(-50.3305 33.6186 0)
(-43.2501 36.2951 0)
(-33.9389 36.8815 0)
(-23.2641 35.7683 0)
(-11.731 33.3315 0)
(0.808879 29.4191 0)
(12.934 23.3079 0)
(23.5665 17.4051 0)
(31.8245 12.4258 0)
(37.3218 8.37493 0)
(40.341 5.23582 0)
(41.2363 2.87757 0)
(40.8759 0.950953 0)
(39.7328 -0.971059 0)
(38.0034 -3.1211 0)
(35.7735 -5.5908 0)
(33.0426 -8.3729 0)
(29.7836 -11.3996 0)
(25.953 -14.5535 0)
(21.5003 -17.6834 0)
(16.4009 -20.6086 0)
(10.7356 -23.0879 0)
(4.71045 -24.7665 0)
(-1.38187 -25.3233 0)
(-7.3185 -24.6201 0)
(-12.976 -22.699 0)
(-18.1698 -19.65 0)
(-22.7354 -15.677 0)
(-26.6205 -11.0939 0)
(-29.7926 -6.16927 0)
(-32.2246 -1.07025 0)
(-33.8275 4.07097 0)
(-34.4186 8.99287 0)
(-33.6688 13.2879 0)
(-31.3765 16.6097 0)
(-27.7855 18.9524 0)
(-23.0498 20.3749 0)
(-17.4825 20.951 0)
(-11.4146 20.7403 0)
(-4.98398 19.8363 0)
(1.7471 18.0935 0)
(8.17551 15.4142 0)
(13.9228 12.6762 0)
(18.6439 10.0668 0)
(22.1659 7.59246 0)
(24.5244 5.25758 0)
(25.8538 3.07494 0)
(26.1954 1.02142 0)
(25.8902 -0.992173 0)
(25.006 -3.07097 0)
(23.5969 -5.2194 0)
(21.6947 -7.39263 0)
(19.3245 -9.53379 0)
(16.4853 -11.5861 0)
(46.1708 18.0147 0)
(92.4417 -14.3881 0)
(126.502 -47.5598 0)
(144.5 -66.7703 0)
(144.192 -68.0396 0)
(135.607 -57.6329 0)
(122.97 -39.0471 0)
(110.244 -15.6412 0)
(98.1065 8.26067 0)
(86.2028 27.0734 0)
(76.5949 37.2126 0)
(70.7149 37.7863 0)
(67.5678 30.4614 0)
(65.2101 17.7035 0)
(61.8006 1.78535 0)
(55.8047 -15.3525 0)
(46.193 -32.0127 0)
(33.3074 -46.4958 0)
(18.4477 -57.7303 0)
(2.4375 -64.6221 0)
(-13.8347 -66.62 0)
(-29.5978 -63.857 0)
(-44.2561 -57.081 0)
(-57.6019 -47.1717 0)
(-69.5753 -35.0392 0)
(-80.1629 -21.3957 0)
(-89.3547 -6.56563 0)
(-97.1561 9.45177 0)
(-103.064 26.0726 0)
(-105.701 41.4324 0)
(-102.072 52.7766 0)
(-91.3193 58.5532 0)
(-74.7403 59.0111 0)
(-54.416 55.4687 0)
(-32.2773 49.5209 0)
(-7.08299 42.4293 0)
(18.353 28.7486 0)
(39.9481 14.8629 0)
(55.597 4.25154 0)
(64.0954 -2.35651 0)
(65.5628 -5.45137 0)
(63.1385 -5.81146 0)
(58.7216 -4.48126 0)
(53.6153 -2.3282 0)
(48.9003 0.0626184 0)
(45.1375 1.91317 0)
(42.3948 2.51929 0)
(40.4233 1.48383 0)
(38.7776 -1.20724 0)
(36.9001 -5.21619 0)
(34.2421 -10.0689 0)
(30.3885 -15.3006 0)
(25.1241 -20.5121 0)
(18.4056 -25.3717 0)
(10.3549 -29.3873 0)
(1.34336 -31.8659 0)
(-8.08604 -32.2841 0)
(-17.4602 -30.666 0)
(-26.4582 -27.1908 0)
(-34.7822 -22.1458 0)
(-42.1888 -15.8363 0)
(-48.4507 -8.54265 0)
(-53.3125 -0.629356 0)
(-56.4087 7.30077 0)
(-56.9774 14.3998 0)
(-54.217 19.8199 0)
(-48.6409 23.4024 0)
(-40.6546 25.274 0)
(-31.147 25.7398 0)
(-20.9627 25.1796 0)
(-10.2882 23.8235 0)
(0.667361 20.8369 0)
(10.4605 16.7858 0)
(18.56 13.2972 0)
(24.5214 10.3735 0)
(28.4908 7.92552 0)
(30.9004 5.94527 0)
(32.1991 4.35014 0)
(32.6919 2.93428 0)
(32.7507 1.50566 0)
(32.434 -0.0344635 0)
(31.73 -1.75586 0)
(30.5728 -3.72387 0)
(28.8677 -5.93206 0)
(26.5363 -8.31496 0)
(23.5169 -10.774 0)
(19.7701 -13.1813 0)
(15.2993 -15.3962 0)
(10.1394 -17.274 0)
(4.41008 -18.6075 0)
(-1.64902 -19.0856 0)
(-7.7484 -18.3842 0)
(-13.6573 -16.6688 0)
(-19.1254 -14.1031 0)
(-23.9156 -10.8192 0)
(-27.8542 -7.01176 0)
(-30.8061 -2.92198 0)
(-32.6419 1.16219 0)
(-33.0925 4.93406 0)
(-31.974 8.12344 0)
(-29.5024 10.649 0)
(-25.8176 12.5166 0)
(-21.213 13.7436 0)
(-16.0425 14.391 0)
(-10.5694 14.5787 0)
(-4.83482 14.2715 0)
(0.967324 13.1051 0)
(6.3055 11.4821 0)
(10.9353 9.90568 0)
(14.6677 8.36066 0)
(17.5119 6.8402 0)
(19.5557 5.37249 0)
(20.9029 3.95038 0)
(21.6342 2.54036 0)
(21.822 1.09379 0)
(21.5941 -0.426269 0)
(20.9327 -2.02654 0)
(19.8323 -3.68837 0)
(18.2801 -5.3769 0)
(16.2619 -7.03427 0)
(13.7784 -8.60204 0)
(117.026 -28.3863 0)
(124.364 -43.6168 0)
(119.354 -50.8278 0)
(105.742 -51.0403 0)
(86.7163 -43.9903 0)
(66.4225 -32.3111 0)
(49.0312 -18.9061 0)
(38.0101 -4.33632 0)
(31.7362 14.7111 0)
(29.9401 31.9431 0)
(34.1357 37.0473 0)
(41.2995 34.8361 0)
(48.6969 27.0076 0)
(54.3928 15.9121 0)
(56.7142 3.24457 0)
(54.8065 -9.57749 0)
(48.4338 -21.7321 0)
(37.7448 -32.8454 0)
(23.2572 -42.0392 0)
(6.20511 -47.7232 0)
(-11.5331 -49.672 0)
(-29.113 -47.6391 0)
(-45.8574 -41.9562 0)
(-61.1782 -33.1697 0)
(-74.715 -21.8084 0)
(-86.1489 -8.59401 0)
(-94.6796 5.38003 0)
(-98.8938 18.6893 0)
(-96.1782 29.0673 0)
(-87.4271 35.4288 0)
(-72.8198 37.7888 0)
(-54.4534 37.0673 0)
(-34.8687 34.7201 0)
(-14.1852 31.8682 0)
(6.41445 24.3013 0)
(23.3441 15.507 0)
(35.7618 8.79417 0)
(42.8327 4.47807 0)
(44.8138 1.59359 0)
(43.6518 -0.116942 0)
(40.9062 -0.868416 0)
(37.5273 -0.818445 0)
(34.3287 -0.0125069 0)
(31.9501 1.27251 0)
(30.6136 2.54093 0)
(30.2646 3.20112 0)
(30.6506 2.87185 0)
(31.3989 1.46375 0)
(31.8265 -0.929367 0)
(31.3329 -4.04243 0)
(29.6682 -7.58529 0)
(26.5908 -11.2822 0)
(22.0246 -14.8299 0)
(16.0147 -17.9721 0)
(8.6708 -20.5438 0)
(0.188463 -22.1639 0)
(-8.86673 -22.0605 0)
(-17.8466 -20.4147 0)
(-26.4004 -17.4423 0)
(-34.0141 -13.3158 0)
(-40.2095 -8.34873 0)
(-44.5704 -2.99928 0)
(-46.5876 2.16421 0)
(-45.7195 6.62102 0)
(-42.5214 10.1406 0)
(-37.3352 12.7379 0)
(-30.7903 14.5127 0)
(-23.5757 15.5628 0)
(-16.1534 16.0362 0)
(-8.53547 15.7503 0)
(-1.2697 14.0955 0)
(5.07206 12.287 0)
(10.2473 10.6412 0)
(14.1831 8.98296 0)
(17.104 7.37024 0)
(19.2646 5.90209 0)
(20.85 4.60121 0)
(22.0088 3.43964 0)
(22.8393 2.34345 0)
(23.3546 1.23642 0)
(23.5072 0.0686231 0)
(23.3097 -1.21748 0)
(22.6824 -2.65716 0)
(21.5542 -4.24432 0)
(19.857 -5.93516 0)
(17.5415 -7.65302 0)
(14.5868 -9.29867 0)
(11.0024 -10.7632 0)
(6.83011 -11.9467 0)
(2.13212 -12.7463 0)
(-2.90383 -12.9506 0)
(-7.99014 -12.2673 0)
(-12.8506 -10.957 0)
(-17.2196 -9.07262 0)
(-20.8084 -6.72154 0)
(-23.3982 -4.08482 0)
(-24.8589 -1.38235 0)
(-24.9497 1.16769 0)
(-23.9575 3.41018 0)
(-21.9691 5.32621 0)
(-19.1809 6.88779 0)
(-15.8385 8.07405 0)
(-12.1714 8.92784 0)
(-8.30665 9.46935 0)
(-4.2762 9.57629 0)
(-0.330068 9.06562 0)
(3.25488 8.43575 0)
(6.32872 7.7313 0)
(8.85047 6.90687 0)
(10.8716 6.01017 0)
(12.4546 5.08296 0)
(13.6491 4.1356 0)
(14.5013 3.16455 0)
(15.0395 2.15334 0)
(15.2589 1.07611 0)
(15.1896 -0.0678576 0)
(14.7907 -1.26583 0)
(14.0349 -2.49985 0)
(12.9016 -3.73707 0)
(11.378 -4.93482 0)
(9.46396 -6.04383 0)
(79.2859 -14.7228 0)
(69.0804 -22.7377 0)
(54.8431 -29.7055 0)
(38.8676 -30.4284 0)
(22.9849 -26.1294 0)
(9.93427 -18.0909 0)
(0.861661 -9.45637 0)
(-4.76423 1.10621 0)
(-5.97883 17.1851 0)
(0.228232 24.204 0)
(11.0406 26.0205 0)
(22.5781 23.3393 0)
(32.5686 17.4889 0)
(39.6744 9.85516 0)
(43.2251 1.51184 0)
(42.7318 -6.73618 0)
(38.5674 -14.1815 0)
(30.7891 -20.4733 0)
(19.7564 -25.6414 0)
(5.8507 -29.5119 0)
(-9.8265 -30.3464 0)
(-25.4961 -28.3744 0)
(-40.2345 -23.898 0)
(-52.8991 -17.3483 0)
(-62.4026 -9.53056 0)
(-67.5811 -1.48534 0)
(-67.0412 5.03828 0)
(-62.0625 9.80681 0)
(-52.9577 14.5832 0)
(-41.3934 17.3694 0)
(-29.2201 18.7566 0)
(-16.8479 19.6762 0)
(-5.10932 18.232 0)
(4.51348 15.1877 0)
(11.879 12.4747 0)
(16.6196 10.3429 0)
(19.0259 8.12405 0)
(19.8274 5.71996 0)
(19.8612 3.59593 0)
(19.4003 2.00187 0)
(18.7184 1.09587 0)
(18.079 0.847443 0)
(17.6868 1.06122 0)
(17.6852 1.47043 0)
(18.2675 1.83344 0)
(19.3122 1.8947 0)
(20.5354 1.44984 0)
(21.5913 0.440869 0)
(22.1183 -1.0715 0)
(21.781 -2.99299 0)
(20.5227 -5.20971 0)
(18.1939 -7.53422 0)
(14.7763 -9.75778 0)
(10.3383 -11.665 0)
(5.00844 -13.0969 0)
(-1.0582 -13.9627 0)
(-7.59523 -13.9531 0)
(-13.8246 -12.6956 0)
(-19.3624 -10.7403 0)
(-23.8369 -8.16725 0)
(-26.9108 -5.30593 0)
(-28.3073 -2.25931 0)
(-28.049 0.636076 0)
(-26.5161 3.33176 0)
(-23.9682 5.76629 0)
(-20.6642 7.7987 0)
(-16.8559 9.36356 0)
(-12.7321 10.357 0)
(-8.41309 10.5642 0)
(-4.20195 10.1517 0)
(-0.322798 9.52967 0)
(3.03562 8.653 0)
(5.85392 7.53178 0)
(8.17533 6.3345 0)
(10.0385 5.19246 0)
(11.4859 4.15609 0)
(12.579 3.23741 0)
(13.3825 2.41959 0)
(13.9497 1.65763 0)
(14.2747 0.893985 0)
(14.3875 0.0714545 0)
(14.26 -0.847866 0)
(13.8451 -1.87292 0)
(13.0931 -2.99145 0)
(11.9584 -4.16982 0)
(10.4103 -5.35677 0)
(8.43891 -6.48224 0)
(6.0634 -7.4605 0)
(3.32991 -8.20375 0)
(0.310423 -8.62523 0)
(-2.91102 -8.658 0)
(-6.14745 -8.24868 0)
(-9.04827 -7.32241 0)
(-11.4826 -6.09196 0)
(-13.3247 -4.62586 0)
(-14.4582 -3.00347 0)
(-14.8269 -1.33461 0)
(-14.5472 0.285862 0)
(-13.6833 1.8164 0)
(-12.3407 3.18727 0)
(-10.6388 4.36272 0)
(-8.67819 5.32841 0)
(-6.53131 6.03778 0)
(-4.27155 6.39273 0)
(-2.03941 6.48498 0)
(0.046823 6.44133 0)
(1.93996 6.22115 0)
(3.59335 5.82171 0)
(5.02253 5.29685 0)
(6.23764 4.69081 0)
(7.24571 4.0259 0)
(8.0582 3.31706 0)
(8.68623 2.57412 0)
(9.135 1.79465 0)
(9.37546 0.963368 0)
(9.41128 0.0875117 0)
(9.21712 -0.815804 0)
(8.77113 -1.73135 0)
(8.05978 -2.63736 0)
(7.07938 -3.50484 0)
(5.83464 -4.29833 0)
(26.0085 -8.82689 0)
(21.5403 -15.3021 0)
(14.997 -18.2989 0)
(7.01684 -18.1889 0)
(-0.848374 -15.4176 0)
(-7.44283 -10.8581 0)
(-11.8184 -4.32392 0)
(-12.9225 3.07958 0)
(-10.164 9.51681 0)
(-3.44323 13.5789 0)
(4.52237 14.6904 0)
(12.0846 13.2921 0)
(18.3531 10.0518 0)
(22.7265 5.55846 0)
(24.9706 0.376023 0)
(24.8273 -4.89519 0)
(22.39 -9.65457 0)
(17.8613 -13.4631 0)
(11.5308 -16.0787 0)
(3.81981 -17.4531 0)
(-4.87659 -17.9576 0)
(-13.7044 -16.9046 0)
(-21.248 -14.4791 0)
(-26.9314 -11.1794 0)
(-30.3313 -7.29291 0)
(-31.178 -3.51465 0)
(-30.2584 0.646755 0)
(-27.9999 4.70102 0)
(-24.6424 8.18966 0)
(-20.4287 10.9616 0)
(-15.8132 12.6947 0)
(-11.1298 13.2667 0)
(-6.43993 13.1147 0)
(-2.07107 12.2707 0)
(1.7473 10.5283 0)
(4.93837 8.22497 0)
(7.50813 5.85498 0)
(9.39385 3.79416 0)
(10.5499 2.20832 0)
(11.0767 1.14703 0)
(11.1579 0.58518 0)
(11.0309 0.435912 0)
(10.9209 0.571732 0)
(10.9525 0.822431 0)
(11.1931 1.013 0)
(11.6043 0.988809 0)
(12.0739 0.641815 0)
(12.4469 -0.0546464 0)
(12.5168 -1.06962 0)
(12.1898 -2.35414 0)
(11.3383 -3.8228 0)
(9.88165 -5.34275 0)
(7.80579 -6.7766 0)
(5.16378 -7.99132 0)
(2.05796 -8.84089 0)
(-1.36194 -9.19447 0)
(-4.89708 -9.04508 0)
(-8.2857 -8.41439 0)
(-11.2106 -7.27286 0)
(-13.4618 -5.68299 0)
(-14.9445 -3.80145 0)
(-15.6476 -1.73162 0)
(-15.5298 0.111885 0)
(-14.7959 2.26318 0)
(-13.4115 4.00138 0)
(-11.542 5.35974 0)
(-9.33121 6.35397 0)
(-6.85784 6.97204 0)
(-4.35408 7.23615 0)
(-1.97734 7.18887 0)
(0.17499 6.8169 0)
(2.0511 6.22726 0)
(3.62396 5.52856 0)
(4.89078 4.78812 0)
(5.87959 4.04778 0)
(6.63755 3.33682 0)
(7.21474 2.66586 0)
(7.65504 2.02756 0)
(7.97833 1.40257 0)
(8.20489 0.761517 0)
(8.31632 0.0747809 0)
(8.2841 -0.66957 0)
(8.07506 -1.472 0)
(7.65404 -2.32338 0)
(6.99027 -3.20091 0)
(6.06445 -4.06809 0)
(4.87304 -4.87577 0)
(3.43301 -5.56595 0)
(1.7825 -6.07353 0)
(-0.0250204 -6.33204 0)
(-1.93636 -6.34899 0)
(-3.76585 -6.0538 0)
(-5.40183 -5.48418 0)
(-6.77787 -4.66793 0)
(-7.84104 -3.65103 0)
(-8.54798 -2.49945 0)
(-8.88499 -1.27448 0)
(-8.86538 -0.0345717 0)
(-8.51574 1.15158 0)
(-7.87327 2.22762 0)
(-6.9829 3.1567 0)
(-5.89308 3.91111 0)
(-4.6502 4.47316 0)
(-3.32226 4.84094 0)
(-1.98406 5.03072 0)
(-0.678659 5.02136 0)
(0.559931 4.86023 0)
(1.74385 4.58065 0)
(2.81048 4.1925 0)
(3.74636 3.73313 0)
(4.54815 3.21766 0)
(5.21317 2.65889 0)
(5.74132 2.06607 0)
(6.13225 1.44234 0)
(6.37647 0.782599 0)
(6.45313 0.0908511 0)
(6.36695 -0.615628 0)
(6.10194 -1.32351 0)
(5.65235 -2.01546 0)
(5.01815 -2.67013 0)
(4.20745 -3.26028 0)
(16.1995 -8.35343 0)
(14.48 -13.0605 0)
(10.9712 -14.5445 0)
(6.65202 -13.9055 0)
(2.63774 -11.2276 0)
(-0.546745 -7.47308 0)
(-2.81812 -3.75667 0)
(-3.4518 1.49487 0)
(-2.35446 6.42512 0)
(0.390009 9.25736 0)
(4.07916 9.95337 0)
(7.48206 8.79854 0)
(10.3461 6.29992 0)
(12.3526 2.99863 0)
(13.2111 -0.592339 0)
(12.8072 -4.04251 0)
(11.1793 -7.10693 0)
(8.54937 -9.66036 0)
(5.15293 -11.4994 0)
(1.02136 -12.4996 0)
(-3.4287 -12.4978 0)
(-7.56831 -11.6887 0)
(-11.354 -10.152 0)
(-14.5424 -7.8807 0)
(-16.8343 -4.99995 0)
(-18.1801 -1.85049 0)
(-18.5831 1.27459 0)
(-17.9569 4.13072 0)
(-16.3037 6.57003 0)
(-13.8195 8.28643 0)
(-10.8861 9.23952 0)
(-7.3541 9.47807 0)
(-3.6806 8.84547 0)
(-0.49178 7.71343 0)
(2.23487 6.37134 0)
(4.36906 5.02319 0)
(5.83756 3.78614 0)
(6.69476 2.72193 0)
(7.04328 1.90487 0)
(7.05939 1.36698 0)
(6.9127 1.08993 0)
(6.72428 1.01415 0)
(6.60008 1.05129 0)
(6.59517 1.0951 0)
(6.7559 1.05435 0)
(7.03294 0.856068 0)
(7.34468 0.453956 0)
(7.5929 -0.158311 0)
(7.66593 -0.964883 0)
(7.46014 -1.93337 0)
(6.92698 -2.9986 0)
(6.02012 -4.07984 0)
(4.73488 -5.09565 0)
(3.09966 -5.95103 0)
(1.18581 -6.5477 0)
(-0.917203 -6.80769 0)
(-3.10624 -6.72691 0)
(-5.21166 -6.22132 0)
(-6.99868 -5.36644 0)
(-8.43861 -4.24736 0)
(-9.46115 -2.93534 0)
(-10.0048 -1.52783 0)
(-10.1993 -0.105599 0)
(-9.80172 1.39532 0)
(-9.00555 2.68953 0)
(-7.8735 3.78016 0)
(-6.49815 4.6467 0)
(-4.97029 5.25106 0)
(-3.30962 5.55767 0)
(-1.66431 5.55505 0)
(-0.121113 5.34065 0)
(1.27688 4.96771 0)
(2.49395 4.47396 0)
(3.52031 3.90835 0)
(4.36526 3.31708 0)
(5.04438 2.73149 0)
(5.57639 2.16619 0)
(5.97922 1.62096 0)
(6.26151 1.08391 0)
(6.43827 0.539285 0)
(6.49727 -0.0283761 0)
(6.42465 -0.628447 0)
(6.20337 -1.26093 0)
(5.8161 -1.91674 0)
(5.2491 -2.57867 0)
(4.49603 -3.22171 0)
(3.55858 -3.8114 0)
(2.45442 -4.30711 0)
(1.22152 -4.66526 0)
(-0.153986 -4.83992 0)
(-1.60422 -4.86226 0)
(-2.96218 -4.636 0)
(-4.21938 -4.18432 0)
(-5.31146 -3.53879 0)
(-6.18736 -2.75783 0)
(-6.81815 -1.88822 0)
(-7.17928 -0.964185 0)
(-7.2598 -0.0322107 0)
(-7.06579 0.857965 0)
(-6.62732 1.66602 0)
(-5.97067 2.36657 0)
(-5.13293 2.94099 0)
(-4.15594 3.37815 0)
(-3.08687 3.6716 0)
(-1.96717 3.82491 0)
(-0.836668 3.83755 0)
(0.2459 3.71972 0)
(1.24905 3.52259 0)
(2.19932 3.24059 0)
(3.04456 2.89782 0)
(3.76722 2.50553 0)
(4.371 2.07315 0)
(4.85233 1.6084 0)
(5.20964 1.11583 0)
(5.43698 0.597517 0)
(5.5146 0.0577644 0)
(5.45087 -0.490642 0)
(5.23734 -1.03669 0)
(4.86738 -1.56406 0)
(4.34821 -2.05543 0)
(3.69429 -2.49367 0)
(17.309 -6.8187 0)
(14.3369 -9.061 0)
(9.91749 -9.96608 0)
(5.46848 -9.25312 0)
(1.95334 -7.24503 0)
(-0.897463 -4.08646 0)
(-2.58811 -1.17346 0)
(-3.03488 2.56157 0)
(-1.92538 5.27686 0)
(0.538388 6.9342 0)
(3.63838 7.16623 0)
(6.55657 6.15802 0)
(8.94132 4.23363 0)
(10.4915 1.76968 0)
(11.0224 -0.857106 0)
(10.4555 -3.34346 0)
(8.903 -5.49549 0)
(6.55656 -7.19092 0)
(3.5962 -8.38073 0)
(0.209004 -9.05123 0)
(-3.28564 -8.96451 0)
(-6.83283 -8.21328 0)
(-10.0132 -6.86043 0)
(-12.6405 -5.14006 0)
(-14.5318 -3.16925 0)
(-15.5494 -1.10704 0)
(-15.6346 0.906066 0)
(-14.8684 2.7312 0)
(-13.3249 4.27333 0)
(-11.1518 5.4512 0)
(-8.48664 6.21184 0)
(-5.8444 6.52332 0)
(-3.3184 6.20586 0)
(-0.837878 5.554 0)
(1.27057 4.79834 0)
(2.91342 3.93549 0)
(4.13209 3.07408 0)
(4.98021 2.30936 0)
(5.52744 1.69699 0)
(5.85887 1.25502 0)
(6.06754 0.977772 0)
(6.23568 0.832316 0)
(6.41955 0.761764 0)
(6.64371 0.69749 0)
(6.8996 0.580927 0)
(7.14908 0.371263 0)
(7.334 0.0425191 0)
(7.39153 -0.41074 0)
(7.25994 -0.976418 0)
(6.8951 -1.63637 0)
(6.24134 -2.34969 0)
(5.28084 -3.05893 0)
(4.02651 -3.70309 0)
(2.51663 -4.23337 0)
(0.813058 -4.60589 0)
(-1.09628 -4.77115 0)
(-3.05525 -4.6883 0)
(-4.83202 -4.32961 0)
(-6.44946 -3.74981 0)
(-7.80325 -2.9684 0)
(-8.81335 -2.02008 0)
(-9.40263 -0.97501 0)
(-9.57989 0.0256215 0)
(-9.35193 0.998133 0)
(-8.7154 1.95839 0)
(-7.72893 2.69263 0)
(-6.47298 3.26604 0)
(-5.04221 3.67229 0)
(-3.5383 3.9152 0)
(-1.96657 3.96175 0)
(-0.421643 3.78465 0)
(0.998631 3.55267 0)
(2.2608 3.23656 0)
(3.35865 2.8605 0)
(4.28987 2.45699 0)
(5.05797 2.04742 0)
(5.67042 1.64238 0)
(6.13803 1.24196 0)
(6.46511 0.838324 0)
(6.6531 0.423783 0)
(6.70439 -0.0071004 0)
(6.60493 -0.458363 0)
(6.34434 -0.928514 0)
(5.912 -1.41036 0)
(5.2995 -1.89033 0)
(4.50648 -2.34915 0)
(3.54315 -2.76439 0)
(2.43377 -3.11288 0)
(1.22734 -3.37668 0)
(-0.135608 -3.53929 0)
(-1.55507 -3.51 0)
(-2.86689 -3.30312 0)
(-4.09291 -2.9772 0)
(-5.16744 -2.53266 0)
(-6.03803 -1.98893 0)
(-6.67135 -1.37544 0)
(-7.04824 -0.724554 0)
(-7.15819 -0.068806 0)
(-7.0019 0.563132 0)
(-6.60687 1.14009 0)
(-6.0014 1.64376 0)
(-5.21554 2.05792 0)
(-4.29098 2.37047 0)
(-3.27064 2.58136 0)
(-2.19404 2.69342 0)
(-1.10154 2.71221 0)
(-0.0319432 2.65441 0)
(0.986066 2.53099 0)
(1.94382 2.34 0)
(2.80789 2.09037 0)
(3.551 1.80799 0)
(4.17697 1.49543 0)
(4.6774 1.15778 0)
(5.044 0.799045 0)
(5.27376 0.423798 0)
(5.35589 0.0353807 0)
(5.28113 -0.357933 0)
(5.0588 -0.746467 0)
(4.68619 -1.11887 0)
(4.16607 -1.46178 0)
(3.51239 -1.76577 0)
(16.0837 -3.72494 0)
(12.7887 -5.37855 0)
(9.00667 -6.17398 0)
(5.32005 -5.40558 0)
(1.88367 -4.12185 0)
(-0.538196 -2.46985 0)
(-1.6819 -0.651918 0)
(-1.51707 1.20336 0)
(-0.0753593 2.78913 0)
(2.30885 3.9064 0)
(5.09707 3.92627 0)
(7.59635 3.32185 0)
(9.53563 2.2925 0)
(10.6231 0.966023 0)
(10.7005 -0.476364 0)
(9.81148 -1.87839 0)
(8.07363 -3.12265 0)
(5.63278 -4.12256 0)
(2.7205 -4.84423 0)
(-0.705739 -5.21292 0)
(-4.19076 -5.12779 0)
(-7.51821 -4.70649 0)
(-10.4855 -3.98959 0)
(-12.8662 -3.03086 0)
(-14.5129 -1.90383 0)
(-15.32 -0.703811 0)
(-15.3037 0.486234 0)
(-14.5063 1.57692 0)
(-13.0213 2.4788 0)
(-10.9933 3.12387 0)
(-8.61047 3.4901 0)
(-6.12051 3.55511 0)
(-3.69078 3.5277 0)
(-1.28409 3.32793 0)
(0.844889 2.86345 0)
(2.52155 2.34929 0)
(3.85353 1.86116 0)
(4.86613 1.43615 0)
(5.60532 1.09864 0)
(6.13748 0.855824 0)
(6.53098 0.7008 0)
(6.84486 0.615044 0)
(7.11937 0.567491 0)
(7.37088 0.519933 0)
(7.59009 0.440438 0)
(7.74854 0.30538 0)
(7.79966 0.0978188 0)
(7.69658 -0.189133 0)
(7.39813 -0.548991 0)
(6.86453 -0.965647 0)
(6.0669 -1.40994 0)
(4.99555 -1.84877 0)
(3.66429 -2.24813 0)
(2.10691 -2.57706 0)
(0.390289 -2.81417 0)
(-1.47447 -2.96913 0)
(-3.33786 -2.87029 0)
(-5.11764 -2.61583 0)
(-6.71405 -2.25062 0)
(-8.03059 -1.78377 0)
(-8.99782 -1.24068 0)
(-9.57119 -0.653743 0)
(-9.72961 -0.0565352 0)
(-9.48911 0.533762 0)
(-8.86456 1.06675 0)
(-7.90201 1.51833 0)
(-6.67498 1.87772 0)
(-5.25814 2.13507 0)
(-3.719 2.29678 0)
(-2.20664 2.37887 0)
(-0.613417 2.40164 0)
(0.946347 2.24114 0)
(2.28964 2.02542 0)
(3.48368 1.78942 0)
(4.51827 1.54324 0)
(5.3816 1.29521 0)
(6.07407 1.04992 0)
(6.59918 0.806846 0)
(6.95961 0.561627 0)
(7.15202 0.308379 0)
(7.17569 0.0438292 0)
(7.02668 -0.233122 0)
(6.69831 -0.521781 0)
(6.18721 -0.817504 0)
(5.49415 -1.11191 0)
(4.62477 -1.39321 0)
(3.5932 -1.6478 0)
(2.42472 -1.86578 0)
(1.16742 -2.05096 0)
(-0.164986 -2.22832 0)
(-1.55118 -2.1422 0)
(-2.89534 -2.00048 0)
(-4.12836 -1.79546 0)
(-5.20999 -1.52621 0)
(-6.09234 -1.20459 0)
(-6.74065 -0.845559 0)
(-7.13419 -0.465937 0)
(-7.26608 -0.0833642 0)
(-7.13637 0.286489 0)
(-6.76668 0.62792 0)
(-6.18313 0.92821 0)
(-5.4175 1.17713 0)
(-4.50825 1.36967 0)
(-3.49575 1.50282 0)
(-2.42285 1.57584 0)
(-1.32812 1.59202 0)
(-0.245618 1.55928 0)
(0.79462 1.49192 0)
(1.75355 1.41299 0)
(2.6352 1.27234 0)
(3.40916 1.0995 0)
(4.05854 0.91356 0)
(4.57547 0.713615 0)
(4.95109 0.502588 0)
(5.17737 0.281092 0)
(5.25023 0.0497341 0)
(5.16398 -0.185615 0)
(4.92408 -0.417043 0)
(4.53324 -0.640653 0)
(4.00298 -0.848756 0)
(3.34501 -1.03136 0)
(15.7673 -1.16496 0)
(12.7002 -1.61864 0)
(9.08231 -1.70625 0)
(5.51522 -1.63713 0)
(2.30518 -1.26541 0)
(0.0378197 -0.74377 0)
(-1.04941 -0.160599 0)
(-0.844001 0.474989 0)
(0.633947 0.988064 0)
(2.66802 1.39061 0)
(5.14565 1.31254 0)
(7.75665 1.10155 0)
(9.84802 0.759064 0)
(11.1216 0.31238 0)
(11.4288 -0.179931 0)
(10.7237 -0.661745 0)
(9.05515 -1.08587 0)
(6.55303 -1.41602 0)
(3.38328 -1.62742 0)
(0.0445375 -1.7993 0)
(-3.29701 -1.70004 0)
(-6.69688 -1.539 0)
(-9.73076 -1.29949 0)
(-12.1991 -0.989687 0)
(-13.9688 -0.630195 0)
(-14.959 -0.246799 0)
(-15.1432 0.133336 0)
(-14.5531 0.479321 0)
(-13.2823 0.770323 0)
(-11.4649 0.985425 0)
(-9.27153 1.10723 0)
(-6.90387 1.12709 0)
(-4.51313 1.14216 0)
(-2.36288 1.21367 0)
(-0.465009 0.991243 0)
(1.26807 0.812785 0)
(2.69073 0.647445 0)
(3.8154 0.505164 0)
(4.69127 0.391646 0)
(5.37944 0.308357 0)
(5.94216 0.253782 0)
(6.43287 0.220886 0)
(6.88744 0.199999 0)
(7.31781 0.180947 0)
(7.7113 0.153406 0)
(8.03644 0.107881 0)
(8.24825 0.0378714 0)
(8.2931 -0.0584444 0)
(8.11633 -0.17867 0)
(7.67093 -0.316423 0)
(6.92493 -0.465414 0)
(5.86633 -0.614308 0)
(4.5032 -0.74964 0)
(2.86785 -0.859813 0)
(1.01102 -0.93759 0)
(-0.857811 -0.991315 0)
(-2.68785 -0.937214 0)
(-4.52595 -0.861223 0)
(-6.19668 -0.747588 0)
(-7.60969 -0.599479 0)
(-8.69451 -0.426369 0)
(-9.40401 -0.238393 0)
(-9.71735 -0.0460623 0)
(-9.63257 0.143974 0)
(-9.16429 0.322054 0)
(-8.35445 0.472546 0)
(-7.26142 0.592053 0)
(-5.94602 0.673478 0)
(-4.48055 0.723748 0)
(-2.92826 0.764416 0)
(-1.48689 0.888809 0)
(-0.103033 0.792095 0)
(1.29328 0.700742 0)
(2.5764 0.619053 0)
(3.71797 0.535558 0)
(4.71018 0.454573 0)
(5.55071 0.375142 0)
(6.23796 0.296589 0)
(6.76871 0.217337 0)
(7.136 0.134786 0)
(7.3305 0.0467799 0)
(7.34112 -0.0471291 0)
(7.15729 -0.146125 0)
(6.76926 -0.248414 0)
(6.17216 -0.351267 0)
(5.36655 -0.450742 0)
(4.36184 -0.542182 0)
(3.17367 -0.621857 0)
(1.81882 -0.690974 0)
(0.494843 -0.776123 0)
(-0.777078 -0.74416 0)
(-2.1373 -0.678612 0)
(-3.42367 -0.6018 0)
(-4.56686 -0.510349 0)
(-5.52338 -0.404594 0)
(-6.25969 -0.288384 0)
(-6.75359 -0.166246 0)
(-6.99515 -0.0433929 0)
(-6.98531 0.0756342 0)
(-6.73622 0.187082 0)
(-6.26945 0.285064 0)
(-5.6143 0.367149 0)
(-4.80583 0.432108 0)
(-3.88256 0.477652 0)
(-2.88238 0.504252 0)
(-1.84011 0.513121 0)
(-0.793456 0.506333 0)
(0.230516 0.485782 0)
(1.18079 0.456848 0)
(2.05368 0.423605 0)
(2.84424 0.365229 0)
(3.53404 0.305692 0)
(4.10274 0.242207 0)
(4.53771 0.174561 0)
(4.83007 0.102992 0)
(4.9727 0.0288657 0)
(4.95956 -0.0477692 0)
(4.78821 -0.125336 0)
(4.46101 -0.199413 0)
(3.98417 -0.268833 0)
(3.37014 -0.331552 0)
(-30.8159 178.543 0)
(-32.8684 173.092 0)
(-31.7829 159.254 0)
(-28.3183 138.481 0)
(-23.1671 112.328 0)
(-17.0751 83.3157 0)
(-10.302 53.8292 0)
(-2.88222 27.7573 0)
(4.54893 9.5064 0)
(11.8307 -17.5294 0)
(12.9211 -36.5226 0)
(8.45142 -49.8131 0)
(4.97875 -62.7955 0)
(0.498089 -76.1221 0)
(-8.08585 -90.1898 0)
(-14.767 -104.699 0)
(-21.4218 -118.5 0)
(-26.9014 -129.805 0)
(-29.3535 -135.259 0)
(-27.9421 -132.687 0)
(-23.4185 -124.242 0)
(-16.5852 -111.189 0)
(-8.85919 -94.5354 0)
(-1.15615 -74.9234 0)
(4.38789 -53.784 0)
(10.0242 -33.8814 0)
(15.0323 -15.8356 0)
(23.3738 2.40064 0)
(28.2281 21.1662 0)
(29.6354 36.2505 0)
(25.8357 48.9343 0)
(22.2946 60.0045 0)
(15.055 69.7519 0)
(8.19639 78.3692 0)
(1.79091 86.4145 0)
(-4.15038 93.8747 0)
(-9.09909 99.0589 0)
(-12.0021 98.6643 0)
(-12.8292 94.2426 0)
(-11.7468 86.2466 0)
(-9.42966 75.715 0)
(-6.94126 62.9006 0)
(-4.74353 47.848 0)
(-2.20032 32.2663 0)
(-0.595433 17.9369 0)
(3.1803 7.77603 0)
(6.5096 -6.75008 0)
(5.76478 -23.844 0)
(9.15554 -36.3575 0)
(7.55448 -47.1286 0)
(5.14844 -56.1709 0)
(3.58025 -64.0914 0)
(2.80288 -70.8937 0)
(1.70991 -76.719 0)
(-0.113182 -79.9428 0)
(-1.68366 -78.8442 0)
(-2.71291 -74.623 0)
(-3.17445 -67.8304 0)
(-3.25779 -59.0682 0)
(-3.27999 -48.5951 0)
(-3.48853 -36.5796 0)
(-3.5305 -24.1028 0)
(-3.08003 -12.8861 0)
(-2.76858 -5.56405 0)
(-2.77688 6.27862 0)
(-2.86595 20.3937 0)
(-2.75367 30.9485 0)
(-2.94357 40.6679 0)
(-1.91958 49.3982 0)
(-1.58581 56.7615 0)
(-0.911207 62.29 0)
(-0.163782 65.0815 0)
(0.364544 64.5015 0)
(0.727444 61.7623 0)
(1.03267 57.1576 0)
(1.19186 50.7788 0)
(1.15942 42.669 0)
(0.749163 33.0748 0)
(-0.136546 22.7721 0)
(-0.971546 13.1311 0)
(-1.30315 6.5483 0)
(-1.17859 -0.126251 0)
(0.673521 -13.4978 0)
(1.24937 -22.1634 0)
(1.43119 -29.8976 0)
(2.11177 -36.5779 0)
(2.69049 -42.2147 0)
(3.22131 -46.6811 0)
(3.58934 -49.7898 0)
(4.13664 -51.0104 0)
(4.65095 -49.9027 0)
(4.55853 -46.8442 0)
(4.07893 -42.0844 0)
(3.16923 -35.9427 0)
(1.8078 -28.6207 0)
(0.258101 -20.6275 0)
(-1.08462 -12.894 0)
(-1.8597 -6.23315 0)
(-2.36475 -1.28892 0)
(-3.81443 5.54165 0)
(-4.87105 13.8516 0)
(-4.90156 21.0828 0)
(-4.55375 27.3884 0)
(-4.01474 32.6579 0)
(-3.25593 36.844 0)
(-2.40272 39.848 0)
(-1.41643 41.0914 0)
(-0.490124 40.369 0)
(0.423857 38.2829 0)
(1.20504 34.8514 0)
(1.65597 30.1255 0)
(1.64038 24.3416 0)
(1.25407 17.8651 0)
(0.593732 11.411 0)
(-0.133738 6.02178 0)
(-0.497665 2.79553 0)
(-0.577188 -3.5028 0)
(-0.706895 -10.7999 0)
(-0.765377 -16.7336 0)
(-0.671095 -21.9608 0)
(-44.5748 179.383 0)
(-38.9898 169.913 0)
(-29.5833 153.144 0)
(-18.1032 130.436 0)
(-5.82065 103.653 0)
(5.58478 74.4738 0)
(16.2717 46.676 0)
(29.9921 18.6693 0)
(39.5558 -2.11702 0)
(45.8861 -19.194 0)
(46.4071 -33.9859 0)
(43.2137 -45.9664 0)
(35.9582 -56.871 0)
(26.3076 -68.511 0)
(16.0164 -81.9134 0)
(5.91319 -96.6776 0)
(-3.55499 -111.313 0)
(-11.8546 -124.117 0)
(-18.1721 -132.595 0)
(-21.311 -132.881 0)
(-21.86 -126.915 0)
(-20.5668 -115.652 0)
(-18.0436 -99.7777 0)
(-15.0673 -80.4444 0)
(-11.9525 -58.7671 0)
(-8.3691 -36.89 0)
(-3.95936 -18.8247 0)
(0.886943 -5.80063 0)
(3.68622 21.5214 0)
(1.24809 37.576 0)
(0.075595 51.4069 0)
(-1.71707 63.0482 0)
(-3.5073 73.4187 0)
(-6.21413 82.87 0)
(-11.2565 91.1901 0)
(-15.1388 98.0168 0)
(-16.3375 101.521 0)
(-16.0165 99.541 0)
(-14.0177 92.7104 0)
(-10.063 82.5246 0)
(-4.93221 70.998 0)
(0.113408 58.2894 0)
(4.37126 44.7647 0)
(4.48226 31.0248 0)
(8.65842 18.605 0)
(13.9529 4.56387 0)
(20.282 -11.0912 0)
(25.8608 -25.3274 0)
(25.3513 -37.2851 0)
(24.269 -46.5734 0)
(23.7329 -54.6522 0)
(19.051 -62.112 0)
(14.3439 -68.7657 0)
(9.35942 -74.034 0)
(4.47956 -76.799 0)
(0.268622 -76.108 0)
(-3.05195 -72.6061 0)
(-5.62001 -66.5139 0)
(-7.66227 -58.0601 0)