/*--------------------------------*- C++ -*----------------------------------*\
| =========                 |                                                 |
| \\      /  F ield         | OpenFOAM: The Open Source CFD Toolbox           |
|  \\    /   O peration     | Version:  2206                                  |
|   \\  /    A nd           | Website:  www.openfoam.com                      |
|    \\/     M anipulation  |                                                 |
\*---------------------------------------------------------------------------*/
FoamFile
{
    version     2.0;
    format      ascii;
    arch        "LSB;label=32;scalar=64";
    class       surfaceScalarField;
    location    "18.3999";
    object      phi;
}
// * * * * * * * * * * * * * * * * * * * * * * * * * * * * * * * * * * * * * //

dimensions      [0 3 -1 0 0 0 0];

oriented        oriented;

internalField   nonuniform List<scalar> 
9487
(
1.03832e-05
2.37305e-06
-2.36852e-06
1.03791e-05
2.25098e-06
-2.24684e-06
1.03756e-05
2.10467e-06
-2.1012e-06
1.03731e-05
1.93499e-06
-1.93245e-06
1.03717e-05
1.74325e-06
-1.74187e-06
1.03717e-05
1.53121e-06
-1.53118e-06
1.03732e-05
1.30114e-06
-1.30263e-06
1.03763e-05
1.05585e-06
-1.05899e-06
1.03812e-05
7.98692e-07
-8.03582e-07
1.03878e-05
5.33638e-07
-5.40282e-07
1.0396e-05
2.65671e-07
-2.73859e-07
1.04054e-05
2.94093e-10
-9.69574e-09
1.04156e-05
-2.58555e-07
2.48355e-07
1.04262e-05
-5.07071e-07
4.96532e-07
1.04365e-05
-7.41787e-07
7.31497e-07
1.0446e-05
-9.59581e-07
9.50065e-07
1.04542e-05
-1.15793e-06
1.14974e-06
1.04606e-05
-1.33481e-06
1.32842e-06
1.04647e-05
-1.4888e-06
1.48463e-06
1.04664e-05
-1.61914e-06
1.61751e-06
1.04653e-05
-1.72551e-06
1.72654e-06
1.04616e-05
-1.80812e-06
1.8118e-06
1.04553e-05
-1.86771e-06
1.87401e-06
1.0447e-05
-1.90566e-06
1.91397e-06
1.04368e-05
-1.92372e-06
1.93393e-06
1.04225e-05
-1.92117e-06
1.93548e-06
1.0404e-05
-1.89601e-06
1.91449e-06
1.03837e-05
-1.84975e-06
1.87003e-06
1.03623e-05
-1.78475e-06
1.80618e-06
1.03405e-05
-1.70305e-06
1.72483e-06
1.03193e-05
-1.60628e-06
1.62755e-06
1.02994e-05
-1.49593e-06
1.5158e-06
1.02818e-05
-1.37339e-06
1.39099e-06
1.02673e-05
-1.23999e-06
1.2545e-06
1.02566e-05
-1.09708e-06
1.10777e-06
1.02503e-05
-9.46064e-07
9.52316e-07
1.0249e-05
-7.88458e-07
7.89764e-07
1.0253e-05
-6.25882e-07
6.21867e-07
1.02626e-05
-4.60102e-07
4.50512e-07
1.02779e-05
-2.93164e-07
2.77887e-07
1.02988e-05
-1.27359e-07
1.06453e-07
1.03252e-05
3.55983e-08
-6.19572e-08
1.03567e-05
1.93989e-07
-2.25542e-07
1.03931e-05
3.46108e-07
-3.82516e-07
1.0434e-05
4.9031e-07
-5.31179e-07
1.04789e-05
6.25056e-07
-6.6997e-07
1.05274e-05
7.48949e-07
-7.97461e-07
1.05791e-05
8.6073e-07
-9.12384e-07
1.06334e-05
9.59309e-07
-1.01366e-06
1.06901e-05
1.04377e-06
-1.10042e-06
1.07487e-05
1.11336e-06
-1.17195e-06
1.08089e-05
1.16742e-06
-1.22765e-06
1.08706e-05
1.20521e-06
-1.2669e-06
1.09337e-05
1.22558e-06
-1.28868e-06
1.0998e-05
1.22695e-06
-1.29125e-06
1.1063e-05
1.2085e-06
-1.27352e-06
1.11282e-05
1.17005e-06
-1.23527e-06
1.11931e-05
1.11176e-06
-1.1766e-06
1.12569e-05
1.03412e-06
-1.09798e-06
1.13191e-05
9.37997e-07
-1.00022e-06
1.1379e-05
8.24573e-07
-8.84475e-07
1.14359e-05
6.95388e-07
-7.52265e-07
1.1489e-05
5.52311e-07
-6.05446e-07
1.15377e-05
3.9754e-07
-4.46215e-07
1.15812e-05
2.33648e-07
-2.77133e-07
1.16187e-05
6.37264e-08
-1.01235e-07
1.16493e-05
-1.08142e-07
7.75882e-08
1.16723e-05
-2.78362e-07
2.5529e-07
1.16875e-05
-4.4425e-07
4.29071e-07
1.16945e-05
-6.03411e-07
5.96405e-07
1.16932e-05
-7.5379e-07
7.551e-07
1.16836e-05
-8.93704e-07
9.0333e-07
1.16658e-05
-1.02185e-06
1.03966e-06
1.164e-05
-1.13728e-06
1.16303e-06
1.16067e-05
-1.23939e-06
1.27272e-06
1.15662e-05
-1.3278e-06
1.36828e-06
1.1519e-05
-1.4023e-06
1.44948e-06
1.14656e-05
-1.46272e-06
1.51617e-06
1.14063e-05
-1.50887e-06
1.56819e-06
1.13415e-05
-1.54047e-06
1.60528e-06
1.12717e-05
-1.55737e-06
1.62711e-06
1.11979e-05
-1.55978e-06
1.6336e-06
1.11209e-05
-1.54796e-06
1.625e-06
1.10415e-05
-1.52207e-06
1.60146e-06
1.09606e-05
-1.48224e-06
1.56312e-06
1.08791e-05
-1.4286e-06
1.5101e-06
1.07978e-05
-1.36127e-06
1.44254e-06
1.07176e-05
-1.28041e-06
1.36065e-06
1.06391e-05
-1.1863e-06
1.26474e-06
1.05632e-05
-1.07935e-06
1.15526e-06
1.04905e-05
-9.60138e-07
1.03287e-06
1.04215e-05
-8.29482e-07
8.98433e-07
1.03569e-05
-6.88416e-07
7.53028e-07
1.02972e-05
-5.3822e-07
5.97999e-07
1.02426e-05
-3.80413e-07
4.34939e-07
1.01937e-05
-2.16746e-07
2.65672e-07
1.01507e-05
-4.93075e-08
9.23475e-08
1.01137e-05
1.19352e-07
-8.23516e-08
1.00826e-05
2.87119e-07
-2.56079e-07
1.00574e-05
4.52115e-07
-4.26909e-07
1.00379e-05
6.12445e-07
-5.92879e-07
1.00237e-05
7.66277e-07
-7.52104e-07
1.00146e-05
9.1195e-07
-9.02875e-07
1.00101e-05
1.04799e-06
-1.04353e-06
1.00094e-05
1.17334e-06
-1.17259e-06
1.0012e-05
1.28684e-06
-1.28942e-06
1.00178e-05
1.38721e-06
-1.39306e-06
1.00266e-05
1.47376e-06
-1.48249e-06
1.00377e-05
1.54603e-06
-1.55719e-06
1.00508e-05
1.60387e-06
-1.61694e-06
1.00652e-05
1.64735e-06
-1.6618e-06
1.00808e-05
1.67666e-06
-1.69218e-06
1.00977e-05
1.69167e-06
-1.70863e-06
1.01177e-05
1.69063e-06
-1.71064e-06
1.01406e-05
1.67185e-06
-1.69469e-06
1.01651e-05
1.63511e-06
-1.65969e-06
1.01914e-05
1.58107e-06
-1.60732e-06
1.02194e-05
1.51059e-06
-1.53858e-06
1.02492e-05
1.42445e-06
-1.45422e-06
1.02807e-05
1.32352e-06
-1.35508e-06
1.0314e-05
1.20883e-06
-1.24213e-06
1.0349e-05
1.08155e-06
-1.11649e-06
1.03854e-05
9.43029e-07
-9.79501e-07
1.04233e-05
7.9482e-07
-8.32661e-07
1.04623e-05
6.38649e-07
-6.77674e-07
1.05023e-05
4.76467e-07
-5.16439e-07
1.05429e-05
3.10481e-07
-3.51104e-07
1.05837e-05
1.43505e-07
-1.8429e-07
1.06242e-05
-2.19288e-08
-1.86134e-08
1.06641e-05
-1.83286e-07
1.43375e-07
1.0703e-05
-3.3952e-07
3.00666e-07
1.07404e-05
-4.86852e-07
4.49397e-07
1.07759e-05
-6.26502e-07
5.90995e-07
1.08092e-05
-7.5225e-07
7.19012e-07
1.08398e-05
-8.69266e-07
8.38642e-07
1.08667e-05
-9.67117e-07
9.40218e-07
1.08924e-05
-1.05152e-06
1.02587e-06
-1.14304e-06
1.12487e-06
1.05143e-05
2.36236e-06
1.05251e-05
2.24011e-06
1.05364e-05
2.09343e-06
1.05481e-05
1.92327e-06
1.05604e-05
1.73098e-06
1.05732e-05
1.51834e-06
1.05867e-05
1.28767e-06
1.06008e-05
1.04177e-06
1.06155e-05
7.84009e-07
1.06307e-05
5.18459e-07
1.0646e-05
2.50353e-07
1.06611e-05
-1.47993e-08
1.06755e-05
-2.72979e-07
1.06888e-05
-5.20339e-07
1.07003e-05
-7.53373e-07
1.07098e-05
-9.68988e-07
1.07165e-05
-1.16468e-06
1.07202e-05
-1.33853e-06
1.07207e-05
-1.48924e-06
1.07176e-05
-1.6161e-06
1.07111e-05
-1.71899e-06
1.07013e-05
-1.7983e-06
1.06885e-05
-1.85492e-06
1.0673e-05
-1.8902e-06
1.06546e-05
-1.90529e-06
1.06317e-05
-1.89829e-06
1.06051e-05
-1.86945e-06
1.05761e-05
-1.82074e-06
1.05456e-05
-1.75423e-06
1.05145e-05
-1.67191e-06
1.04837e-05
-1.57548e-06
1.04542e-05
-1.46643e-06
1.04269e-05
-1.34615e-06
1.04029e-05
-1.21592e-06
1.03828e-05
-1.07701e-06
1.03675e-05
-9.30734e-07
1.03575e-05
-7.78455e-07
1.03533e-05
-6.21663e-07
1.03552e-05
-4.62002e-07
1.03634e-05
-3.01409e-07
1.0378e-05
-1.41932e-07
1.03988e-05
1.48235e-08
1.04255e-05
1.67223e-07
1.0458e-05
3.13646e-07
1.04958e-05
4.52515e-07
1.05385e-05
5.82336e-07
1.05857e-05
7.0174e-07
1.06369e-05
8.09495e-07
1.06917e-05
9.04524e-07
1.07496e-05
9.85888e-07
1.08102e-05
1.0528e-06
1.08731e-05
1.10453e-06
1.0938e-05
1.14025e-06
1.10049e-05
1.15874e-06
1.10732e-05
1.1586e-06
1.11425e-05
1.13926e-06
1.12119e-05
1.10058e-06
1.12809e-05
1.04274e-06
1.13488e-05
9.663e-07
1.14146e-05
8.72138e-07
1.14777e-05
7.61471e-07
1.15373e-05
6.35844e-07
1.15925e-05
4.97122e-07
1.16425e-05
3.47488e-07
1.16866e-05
1.89518e-07
1.1724e-05
2.6412e-08
1.17536e-05
-1.37731e-07
1.17749e-05
-2.99757e-07
1.17878e-05
-4.57095e-07
1.17919e-05
-6.07481e-07
1.17871e-05
-7.49001e-07
1.17735e-05
-8.80123e-07
1.17513e-05
-9.99691e-07
1.17209e-05
-1.10689e-06
1.16827e-05
-1.20117e-06
1.16371e-05
-1.28222e-06
1.15847e-05
-1.34982e-06
1.15257e-05
-1.40378e-06
1.14607e-05
-1.44386e-06
1.13901e-05
-1.4699e-06
1.13147e-05
-1.48198e-06
1.12354e-05
-1.48043e-06
1.11529e-05
-1.4655e-06
1.10682e-05
-1.43739e-06
1.09822e-05
-1.39624e-06
1.08958e-05
-1.34217e-06
1.08098e-05
-1.2753e-06
1.07252e-05
-1.19577e-06
1.06427e-05
-1.10382e-06
1.05632e-05
-9.99793e-07
1.04873e-05
-8.84232e-07
1.04157e-05
-7.57871e-07
1.03489e-05
-6.21675e-07
1.02875e-05
-4.76849e-07
1.0232e-05
-3.24834e-07
1.01825e-05
-1.67304e-07
1.01395e-05
-6.28217e-09
1.0103e-05
1.55828e-07
1.0073e-05
3.17092e-07
1.00495e-05
4.75709e-07
1.0032e-05
6.299e-07
1.00203e-05
7.77938e-07
1.0014e-05
9.18294e-07
1.00122e-05
1.04975e-06
1.00149e-05
1.17072e-06
1.0022e-05
1.27972e-06
1.00331e-05
1.37604e-06
1.00478e-05
1.45915e-06
1.00653e-05
1.52853e-06
1.00852e-05
1.58397e-06
1.01071e-05
1.6254e-06
1.0131e-05
1.65272e-06
1.01576e-05
1.66513e-06
1.01874e-05
1.66085e-06
1.022e-05
1.63924e-06
1.02549e-05
1.60023e-06
1.02917e-05
1.54421e-06
1.03304e-05
1.47188e-06
1.03709e-05
1.384e-06
1.04129e-05
1.28147e-06
1.04564e-05
1.16532e-06
1.05012e-05
1.03677e-06
1.0547e-05
8.97204e-07
1.05937e-05
7.48183e-07
1.06409e-05
5.91467e-07
1.06883e-05
4.29054e-07
1.07355e-05
2.63224e-07
1.0782e-05
9.70082e-08
1.08273e-05
-6.72418e-08
1.08711e-05
-2.27031e-07
1.09128e-05
-3.81248e-07
1.09521e-05
-5.26137e-07
1.09884e-05
-6.62844e-07
1.10216e-05
-7.85393e-07
1.10511e-05
-8.98801e-07
1.10762e-05
-9.9226e-07
1.10993e-05
-1.0746e-06
-1.15758e-06
1.06624e-05
2.33581e-06
1.06889e-05
2.21361e-06
1.07154e-05
2.06691e-06
1.07419e-05
1.89677e-06
1.07683e-05
1.70457e-06
1.07945e-05
1.49216e-06
1.08204e-05
1.26184e-06
1.08457e-05
1.01644e-06
1.08704e-05
7.59332e-07
1.08942e-05
4.9465e-07
1.09166e-05
2.27925e-07
1.09372e-05
-3.54443e-08
1.09556e-05
-2.91375e-07
1.09713e-05
-5.36002e-07
1.09837e-05
-7.65806e-07
1.09925e-05
-9.77759e-07
1.09972e-05
-1.16942e-06
1.09977e-05
-1.33898e-06
1.09937e-05
-1.48528e-06
1.09854e-05
-1.60777e-06
1.09728e-05
-1.70644e-06
1.09564e-05
-1.78184e-06
1.09364e-05
-1.83497e-06
1.09133e-05
-1.86705e-06
1.08861e-05
-1.87807e-06
1.08543e-05
-1.86652e-06
1.08189e-05
-1.83408e-06
1.07809e-05
-1.78272e-06
1.07412e-05
-1.7145e-06
1.07007e-05
-1.63139e-06
1.06603e-05
-1.53515e-06
1.06212e-05
-1.42733e-06
1.05844e-05
-1.30931e-06
1.05508e-05
-1.18235e-06
1.05215e-05
-1.04765e-06
1.04971e-05
-9.06402e-07
1.04785e-05
-7.59837e-07
1.04661e-05
-6.09304e-07
1.04605e-05
-4.56321e-07
1.04618e-05
-3.02721e-07
1.04701e-05
-1.50244e-07
1.04853e-05
-4.03651e-10
1.05073e-05
1.45254e-07
1.05357e-05
2.85192e-07
1.05703e-05
4.17909e-07
1.06107e-05
5.41975e-07
1.06564e-05
6.56069e-07
1.07069e-05
7.58986e-07
1.07617e-05
8.49673e-07
1.08204e-05
9.27202e-07
1.08825e-05
9.90753e-07
1.09475e-05
1.03953e-06
1.10151e-05
1.07263e-06
1.1085e-05
1.08881e-06
1.11567e-05
1.08692e-06
1.12294e-05
1.06656e-06
1.13023e-05
1.02763e-06
1.13747e-05
9.70357e-07
1.14457e-05
8.95326e-07
1.15144e-05
8.03448e-07
1.15799e-05
6.95952e-07
1.16414e-05
5.74382e-07
1.16979e-05
4.40583e-07
1.17487e-05
2.96713e-07
1.17928e-05
1.45358e-07
1.18294e-05
-1.0141e-08
1.18576e-05
-1.6589e-07
1.18769e-05
-3.19095e-07
1.18871e-05
-4.67315e-07
1.18881e-05
-6.08428e-07
1.18797e-05
-7.4067e-07
1.18623e-05
-8.62652e-07
1.18359e-05
-9.73355e-07
1.18011e-05
-1.07208e-06
1.17583e-05
-1.15837e-06
1.1708e-05
-1.23192e-06
1.16507e-05
-1.29249e-06
1.15868e-05
-1.33985e-06
1.15167e-05
-1.37379e-06
1.14411e-05
-1.39433e-06
1.13609e-05
-1.40175e-06
1.12769e-05
-1.39639e-06
1.11899e-05
-1.37849e-06
1.11008e-05
-1.3483e-06
1.10105e-05
-1.30597e-06
1.092e-05
-1.25165e-06
1.08301e-05
-1.18543e-06
1.07418e-05
-1.10746e-06
1.06559e-05
-1.01793e-06
1.05733e-05
-9.17168e-07
1.04947e-05
-8.05638e-07
1.04208e-05
-6.84004e-07
1.03523e-05
-5.53152e-07
1.02896e-05
-4.14195e-07
1.02333e-05
-2.68479e-07
1.01836e-05
-1.17588e-07
1.01408e-05
3.65359e-08
1.01049e-05
1.91658e-07
1.0076e-05
3.46005e-07
1.00539e-05
4.97854e-07
1.00383e-05
6.45505e-07
1.00289e-05
7.87297e-07
1.00255e-05
9.21701e-07
1.00279e-05
1.04733e-06
1.00358e-05
1.16281e-06
1.00486e-05
1.26696e-06
1.00657e-05
1.35895e-06
1.00867e-05
1.43818e-06
1.0111e-05
1.50418e-06
1.01383e-05
1.55667e-06
1.01683e-05
1.59539e-06
1.02012e-05
1.61985e-06
1.02375e-05
1.62883e-06
1.02772e-05
1.62113e-06
1.03199e-05
1.59652e-06
1.03652e-05
1.55495e-06
1.04127e-05
1.49675e-06
1.0462e-05
1.42251e-06
1.05131e-05
1.33297e-06
1.05655e-05
1.22902e-06
1.06191e-05
1.11174e-06
1.06735e-05
9.82334e-07
1.07285e-05
8.42221e-07
1.07837e-05
6.92982e-07
1.08388e-05
5.36391e-07
1.08933e-05
3.74498e-07
1.09469e-05
2.09714e-07
1.09987e-05
4.52092e-08
1.10483e-05
-1.16931e-07
1.10955e-05
-2.74182e-07
1.11396e-05
-4.25368e-07
1.11803e-05
-5.66796e-07
1.12171e-05
-6.99651e-07
1.12496e-05
-8.17905e-07
1.12777e-05
-9.26896e-07
1.13004e-05
-1.01497e-06
1.132e-05
-1.0942e-06
-1.16823e-06
1.08254e-05
2.29313e-06
1.08678e-05
2.17115e-06
1.09099e-05
2.0248e-06
1.09515e-05
1.85519e-06
1.09923e-05
1.66378e-06
1.1032e-05
1.45245e-06
1.10704e-05
1.22351e-06
1.1107e-05
9.79773e-07
1.11417e-05
7.24632e-07
1.11741e-05
4.6228e-07
1.12035e-05
1.9854e-07
1.12294e-05
-6.14023e-08
1.12515e-05
-3.13422e-07
1.12691e-05
-5.53658e-07
1.1282e-05
-7.78623e-07
1.12896e-05
-9.85366e-07
1.12917e-05
-1.17157e-06
1.12883e-05
-1.33556e-06
1.12794e-05
-1.47635e-06
1.12651e-05
-1.59353e-06
1.1246e-05
-1.68728e-06
1.12224e-05
-1.75826e-06
1.11948e-05
-1.80738e-06
1.11632e-05
-1.83542e-06
1.11267e-05
-1.84159e-06
1.10858e-05
-1.82563e-06
1.10413e-05
-1.78959e-06
1.09941e-05
-1.7355e-06
1.0945e-05
-1.66544e-06
1.08951e-05
-1.58143e-06
1.08452e-05
-1.48531e-06
1.07966e-05
-1.37869e-06
1.07503e-05
-1.26297e-06
1.07073e-05
-1.13942e-06
1.06688e-05
-1.00914e-06
1.06356e-05
-8.7323e-07
1.06086e-05
-7.32785e-07
1.05883e-05
-5.89007e-07
1.05753e-05
-4.43306e-07
1.05699e-05
-2.97309e-07
1.05721e-05
-1.52473e-07
1.05819e-05
-1.02241e-08
1.05992e-05
1.27988e-07
1.06237e-05
2.60711e-07
1.0655e-05
3.86526e-07
1.06929e-05
5.04077e-07
1.07369e-05
6.12108e-07
1.07864e-05
7.0946e-07
1.0841e-05
7.95104e-07
1.09001e-05
8.68128e-07
1.09631e-05
9.27695e-07
1.10297e-05
9.72969e-07
1.10994e-05
1.00296e-06
1.11717e-05
1.01648e-06
1.1246e-05
1.01265e-06
1.13214e-05
9.91176e-07
1.1397e-05
9.52e-07
1.14719e-05
8.95397e-07
1.15453e-05
8.21983e-07
1.1616e-05
7.32692e-07
1.16832e-05
6.28764e-07
1.17459e-05
5.11724e-07
1.18031e-05
3.83381e-07
1.18539e-05
2.45852e-07
1.18976e-05
1.01741e-07
1.19329e-05
-4.54462e-08
1.19592e-05
-1.92236e-07
1.19762e-05
-3.36087e-07
1.19836e-05
-4.74713e-07
1.19813e-05
-6.06153e-07
1.19695e-05
-7.28796e-07
1.19482e-05
-8.41405e-07
1.19179e-05
-9.43079e-07
1.18791e-05
-1.03321e-06
1.18321e-05
-1.11139e-06
1.17775e-05
-1.17735e-06
1.17158e-05
-1.23081e-06
1.16475e-05
-1.27152e-06
1.15731e-05
-1.29938e-06
1.14934e-05
-1.3146e-06
1.14092e-05
-1.31754e-06
1.13213e-05
-1.30851e-06
1.12306e-05
-1.28781e-06
1.1138e-05
-1.25569e-06
1.10444e-05
-1.21234e-06
1.09506e-05
-1.15791e-06
1.08577e-05
-1.09251e-06
1.07665e-05
-1.01628e-06
1.0678e-05
-9.29407e-07
1.0593e-05
-8.32158e-07
1.05123e-05
-7.24954e-07
1.04367e-05
-6.08389e-07
1.03668e-05
-4.83262e-07
1.03032e-05
-3.50591e-07
1.02463e-05
-2.11624e-07
1.01966e-05
-6.78493e-08
1.01543e-05
7.88606e-08
1.01195e-05
2.2649e-07
1.00921e-05
3.73397e-07
1.0072e-05
5.17921e-07
1.00591e-05
6.58421e-07
1.00531e-05
7.93298e-07
1.00537e-05
9.21062e-07
1.00607e-05
1.04035e-06
1.00736e-05
1.1499e-06
1.00919e-05
1.24866e-06
1.01151e-05
1.33578e-06
1.01426e-05
1.41064e-06
1.0174e-05
1.47273e-06
1.0209e-05
1.52166e-06
1.02475e-05
1.55694e-06
1.02897e-05
1.57767e-06
1.03358e-05
1.5827e-06
1.03855e-05
1.57142e-06
1.04384e-05
1.54362e-06
1.04941e-05
1.49932e-06
1.0552e-05
1.43881e-06
1.06119e-05
1.36265e-06
1.06733e-05
1.27156e-06
1.07359e-05
1.16643e-06
1.07993e-05
1.04834e-06
1.08631e-05
9.18535e-07
1.09269e-05
7.78418e-07
1.09903e-05
6.29582e-07
1.10528e-05
4.73817e-07
1.11141e-05
3.13227e-07
1.11733e-05
1.50478e-07
1.123e-05
-1.14098e-08
1.12835e-05
-1.70476e-07
1.13335e-05
-3.24198e-07
1.13795e-05
-4.7134e-07
1.14211e-05
-6.08352e-07
1.14578e-05
-7.36389e-07
1.14892e-05
-8.49269e-07
1.15155e-05
-9.53242e-07
1.15354e-05
-1.03491e-06
1.1551e-05
-1.10972e-06
-1.1748e-06
1.10003e-05
2.23432e-06
1.10587e-05
2.1127e-06
1.11165e-05
1.96704e-06
1.11732e-05
1.79851e-06
1.12283e-05
1.60861e-06
1.12815e-05
1.39925e-06
1.13323e-05
1.17275e-06
1.13802e-05
9.31886e-07
1.14248e-05
6.80055e-07
1.14655e-05
4.21586e-07
1.15015e-05
1.62488e-07
1.15324e-05
-9.2326e-08
1.15577e-05
-3.38718e-07
1.15769e-05
-5.72851e-07
1.15896e-05
-7.91321e-07
1.15956e-05
-9.91291e-07
1.15946e-05
-1.1706e-06
1.15868e-05
-1.32776e-06
1.15724e-05
-1.46197e-06
1.15519e-05
-1.573e-06
1.15257e-05
-1.66114e-06
1.14946e-05
-1.72708e-06
1.14588e-05
-1.7716e-06
1.14181e-05
-1.79477e-06
1.13722e-05
-1.79569e-06
1.13219e-05
-1.77535e-06
1.12681e-05
-1.73574e-06
1.12115e-05
-1.67889e-06
1.1153e-05
-1.60697e-06
1.10936e-05
-1.52204e-06
1.10343e-05
-1.42602e-06
1.09763e-05
-1.32061e-06
1.09206e-05
-1.20728e-06
1.08684e-05
-1.08728e-06
1.0821e-05
-9.61678e-07
1.07792e-05
-8.3146e-07
1.0744e-05
-6.97578e-07
1.07161e-05
-5.61115e-07
1.06961e-05
-4.23316e-07
1.06843e-05
-2.85486e-07
1.06807e-05
-1.48895e-07
1.06853e-05
-1.48669e-08
1.06981e-05
1.15244e-07
1.07187e-05
2.40082e-07
1.07469e-05
3.5832e-07
1.07823e-05
4.68683e-07
1.08244e-05
5.69983e-07
1.08728e-05
6.61124e-07
1.09268e-05
7.41114e-07
1.09858e-05
8.0906e-07
1.10494e-05
8.64108e-07
1.1117e-05
9.05367e-07
1.11882e-05
9.31813e-07
1.12623e-05
9.42397e-07
1.13384e-05
9.36479e-07
1.14158e-05
9.13823e-07
1.14933e-05
8.74425e-07
1.15701e-05
8.18618e-07
1.16451e-05
7.47053e-07
1.17171e-05
6.60674e-07
1.17851e-05
5.607e-07
1.18482e-05
4.48615e-07
1.19055e-05
3.26173e-07
1.19558e-05
1.95469e-07
1.19984e-05
5.91888e-08
1.20321e-05
-7.91076e-08
1.20563e-05
-2.16475e-07
1.20707e-05
-3.5054e-07
1.20752e-05
-4.79198e-07
1.20697e-05
-6.00657e-07
1.20544e-05
-7.13476e-07
1.20296e-05
-8.16563e-07
1.19956e-05
-9.09133e-07
1.19531e-05
-9.90643e-07
1.19024e-05
-1.06072e-06
1.18441e-05
-1.11905e-06
1.17786e-05
-1.16537e-06
1.17066e-05
-1.19948e-06
1.16287e-05
-1.22143e-06
1.15456e-05
-1.23155e-06
1.14582e-05
-1.23018e-06
1.13674e-05
-1.21768e-06
1.1274e-05
-1.19435e-06
1.11788e-05
-1.16048e-06
1.10827e-05
-1.11626e-06
1.09866e-05
-1.06187e-06
1.08916e-05
-9.97448e-07
1.07984e-05
-9.23126e-07
1.07081e-05
-8.39076e-07
1.06215e-05
-7.45546e-07
1.05394e-05
-6.42906e-07
1.04627e-05
-5.31685e-07
1.0392e-05
-4.12598e-07
1.0328e-05
-2.86572e-07
1.02712e-05
-1.54756e-07
1.02219e-05
-1.85519e-08
1.01805e-05
1.20239e-07
1.01471e-05
2.59875e-07
1.01217e-05
3.98805e-07
1.01042e-05
5.35446e-07
1.00944e-05
6.68227e-07
1.0092e-05
7.95623e-07
1.00969e-05
9.1621e-07
1.01086e-05
1.02867e-06
1.01266e-05
1.13184e-06
1.01506e-05
1.2247e-06
1.01799e-05
1.30645e-06
1.02142e-05
1.3764e-06
1.02529e-05
1.43402e-06
1.02958e-05
1.47871e-06
1.0343e-05
1.50972e-06
1.03947e-05
1.52605e-06
1.04505e-05
1.52685e-06
1.05101e-05
1.51178e-06
1.05731e-05
1.48064e-06
1.06389e-05
1.43349e-06
1.07071e-05
1.37064e-06
1.07772e-05
1.29261e-06
1.08486e-05
1.20012e-06
1.09209e-05
1.09408e-06
1.09937e-05
9.75575e-07
1.10664e-05
8.45835e-07
1.11386e-05
7.06274e-07
1.12097e-05
5.58478e-07
1.12792e-05
4.04251e-07
1.13466e-05
2.45822e-07
1.1411e-05
8.60804e-08
1.14719e-05
-7.23016e-08
1.15288e-05
-2.27307e-07
1.15811e-05
-3.76547e-07
1.16284e-05
-5.18591e-07
1.16703e-05
-6.50254e-07
1.17062e-05
-7.72319e-07
1.1736e-05
-8.7904e-07
1.17595e-05
-9.76764e-07
1.17764e-05
-1.05185e-06
1.17874e-05
-1.12067e-06
-1.17699e-06
1.11839e-05
2.15963e-06
1.12581e-05
2.03853e-06
1.13312e-05
1.89392e-06
1.14027e-05
1.72702e-06
1.14719e-05
1.53937e-06
1.15383e-05
1.33291e-06
1.16011e-05
1.10992e-06
1.16598e-05
8.73178e-07
1.17138e-05
6.26045e-07
1.17623e-05
3.73098e-07
1.18044e-05
1.20355e-07
1.18397e-05
-1.27567e-07
1.18675e-05
-3.66563e-07
1.18876e-05
-5.92873e-07
1.18994e-05
-8.03214e-07
1.19031e-05
-9.94911e-07
1.18985e-05
-1.16599e-06
1.18859e-05
-1.31517e-06
1.18657e-05
-1.44183e-06
1.18387e-05
-1.54592e-06
1.18053e-05
-1.62783e-06
1.17664e-05
-1.68816e-06
1.17222e-05
-1.72733e-06
1.16722e-05
-1.74485e-06
1.1617e-05
-1.74043e-06
1.15573e-05
-1.71569e-06
1.14941e-05
-1.67251e-06
1.14281e-05
-1.61295e-06
1.13603e-05
-1.53918e-06
1.12917e-05
-1.45336e-06
1.12231e-05
-1.35747e-06
1.11558e-05
-1.25333e-06
1.1091e-05
-1.14249e-06
1.103e-05
-1.02623e-06
1.09739e-05
-9.0559e-07
1.09239e-05
-7.81467e-07
1.0881e-05
-6.54685e-07
1.0846e-05
-5.2612e-07
1.08194e-05
-3.96745e-07
1.08016e-05
-2.67602e-07
1.07925e-05
-1.39823e-07
1.07922e-05
-1.46112e-08
1.08007e-05
1.0679e-07
1.08176e-05
2.23131e-07
1.08428e-05
3.33185e-07
1.08757e-05
4.35765e-07
1.09159e-05
5.29759e-07
1.09629e-05
6.14137e-07
1.10161e-05
6.87947e-07
1.10748e-05
7.50308e-07
1.11386e-05
8.00354e-07
1.12068e-05
8.37159e-07
1.12789e-05
8.59714e-07
1.13541e-05
8.67163e-07
1.14315e-05
8.59068e-07
1.15101e-05
8.35229e-07
1.15888e-05
7.95705e-07
1.16666e-05
7.40872e-07
1.17423e-05
6.71393e-07
1.18147e-05
5.88201e-07
1.18829e-05
4.92489e-07
1.19459e-05
3.85692e-07
1.20025e-05
2.69513e-07
1.20519e-05
1.46055e-07
1.2093e-05
1.81637e-08
1.21247e-05
-1.10825e-07
1.21466e-05
-2.38395e-07
1.21584e-05
-3.62349e-07
1.216e-05
-4.80769e-07
1.21514e-05
-5.92048e-07
1.21328e-05
-6.94916e-07
1.21047e-05
-7.88422e-07
1.20674e-05
-8.71885e-07
1.20216e-05
-9.44816e-07
1.19677e-05
-1.00684e-06
1.19063e-05
-1.05761e-06
1.18378e-05
-1.09686e-06
1.17628e-05
-1.12452e-06
1.16822e-05
-1.1408e-06
1.15967e-05
-1.14603e-06
1.1507e-05
-1.14057e-06
1.14141e-05
-1.12478e-06
1.13188e-05
-1.09901e-06
1.12219e-05
-1.06354e-06
1.11242e-05
-1.01861e-06
1.10268e-05
-9.64413e-07
1.09304e-05
-9.01111e-07
1.08361e-05
-8.28844e-07
1.07448e-05
-7.47779e-07
1.06574e-05
-6.58141e-07
1.05748e-05
-5.60261e-07
1.04977e-05
-4.54608e-07
1.04269e-05
-3.41824e-07
1.03631e-05
-2.2275e-07
1.03068e-05
-9.84445e-08
1.02585e-05
2.97542e-08
1.02185e-05
1.60191e-07
1.0187e-05
2.91381e-07
1.0164e-05
4.21857e-07
1.01493e-05
5.50122e-07
1.01428e-05
6.74687e-07
1.01444e-05
7.94106e-07
1.01535e-05
9.07026e-07
1.017e-05
1.0122e-06
1.01933e-05
1.10851e-06
1.0223e-05
1.195e-06
1.02586e-05
1.27086e-06
1.02997e-05
1.33538e-06
1.03458e-05
1.38789e-06
1.03969e-05
1.42763e-06
1.04529e-05
1.45366e-06
1.05139e-05
1.46512e-06
1.05792e-05
1.4615e-06
1.06485e-05
1.44246e-06
1.07213e-05
1.40787e-06
1.0797e-05
1.35782e-06
1.0875e-05
1.29264e-06
1.09547e-05
1.21285e-06
1.10357e-05
1.11918e-06
1.11172e-05
1.01254e-06
1.11988e-05
8.94019e-07
1.12798e-05
7.64845e-07
1.13596e-05
6.26414e-07
1.14378e-05
4.803e-07
1.15137e-05
3.28355e-07
1.15865e-05
1.73021e-07
1.16554e-05
1.72001e-08
1.17198e-05
-1.36726e-07
1.17792e-05
-2.86695e-07
1.18331e-05
-4.30428e-07
1.18808e-05
-5.66337e-07
1.19222e-05
-6.91665e-07
1.19566e-05
-8.06677e-07
1.19842e-05
-9.06642e-07
1.20041e-05
-9.96621e-07
1.20176e-05
-1.06537e-06
1.20238e-05
-1.12689e-06
-1.1744e-06
1.13725e-05
2.06959e-06
1.14619e-05
1.94919e-06
1.15498e-05
1.80601e-06
1.16355e-05
1.6413e-06
1.17182e-05
1.45664e-06
1.17972e-05
1.25398e-06
1.18715e-05
1.0356e-06
1.19404e-05
8.04217e-07
1.20033e-05
5.63235e-07
1.20588e-05
3.17529e-07
1.21063e-05
7.28354e-08
1.21453e-05
-1.66479e-07
1.21751e-05
-3.96377e-07
1.21954e-05
-6.1322e-07
1.22061e-05
-8.1388e-07
1.22071e-05
-9.95882e-07
1.21985e-05
-1.15747e-06
1.21809e-05
-1.29759e-06
1.21549e-05
-1.41582e-06
1.21212e-05
-1.51224e-06
1.20807e-05
-1.58726e-06
1.20338e-05
-1.6413e-06
1.19808e-05
-1.67426e-06
1.19215e-05
-1.68555e-06
1.18568e-05
-1.67577e-06
1.17877e-05
-1.64659e-06
1.1715e-05
-1.59984e-06
1.16397e-05
-1.53759e-06
1.15625e-05
-1.46204e-06
1.14846e-05
-1.3754e-06
1.14069e-05
-1.27974e-06
1.13305e-05
-1.177e-06
1.12569e-05
-1.06883e-06
1.11872e-05
-9.56598e-07
1.1123e-05
-8.41375e-07
1.10654e-05
-7.23891e-07
1.10155e-05
-6.04757e-07
1.0974e-05
-4.84587e-07
1.09413e-05
-3.64117e-07
1.09179e-05
-2.44196e-07
1.09039e-05
-1.25789e-07
1.08993e-05
-9.9545e-09
1.09039e-05
1.02192e-07
1.09175e-05
2.09513e-07
1.09398e-05
3.10879e-07
1.09703e-05
4.05193e-07
1.10087e-05
4.91418e-07
1.10542e-05
5.68585e-07
1.11064e-05
6.35789e-07
1.11645e-05
6.92158e-07
1.12281e-05
7.36812e-07
1.12964e-05
7.68812e-07
1.13689e-05
7.87257e-07
1.14446e-05
7.91498e-07
1.15224e-05
7.81204e-07
1.16014e-05
7.56218e-07
1.16805e-05
7.16661e-07
1.17584e-05
6.62942e-07
1.18341e-05
5.9573e-07
1.19063e-05
5.15948e-07
1.19741e-05
4.24745e-07
1.20363e-05
3.23502e-07
1.20919e-05
2.13889e-07
1.21399e-05
9.80648e-08
1.2179e-05
-2.09759e-08
1.22085e-05
-1.40362e-07
1.2228e-05
-2.57863e-07
1.22371e-05
-3.71481e-07
1.22359e-05
-4.79502e-07
1.22243e-05
-5.80515e-07
1.22028e-05
-6.73416e-07
1.21718e-05
-7.57384e-07
1.21317e-05
-8.3182e-07
1.20832e-05
-8.96268e-07
1.20267e-05
-9.50333e-07
1.19627e-05
-9.93654e-07
1.18919e-05
-1.02601e-06
1.18149e-05
-1.04749e-06
1.17324e-05
-1.05835e-06
1.16453e-05
-1.05892e-06
1.15543e-05
-1.04958e-06
1.14602e-05
-1.03071e-06
1.13639e-05
-1.00266e-06
1.12661e-05
-9.65754e-07
1.11678e-05
-9.20263e-07
1.10697e-05
-8.66405e-07
1.0973e-05
-8.04357e-07
1.08784e-05
-7.34277e-07
1.0787e-05
-6.56331e-07
1.06996e-05
-5.70729e-07
1.06171e-05
-4.77767e-07
1.05403e-05
-3.77863e-07
1.04701e-05
-2.71596e-07
1.04071e-05
-1.59731e-07
1.03519e-05
-4.32588e-08
1.03051e-05
7.65369e-08
1.0267e-05
1.98265e-07
1.02378e-05
3.2062e-07
1.02174e-05
4.4223e-07
1.02059e-05
5.6169e-07
1.02029e-05
6.776e-07
1.02085e-05
7.88599e-07
1.02221e-05
8.9341e-07
1.02434e-05
9.90856e-07
1.0272e-05
1.07988e-06
1.03075e-05
1.15954e-06
1.03494e-05
1.22901e-06
1.03972e-05
1.28752e-06
1.04508e-05
1.33428e-06
1.05101e-05
1.36836e-06
1.05749e-05
1.38888e-06
1.06448e-05
1.39524e-06
1.07193e-05
1.387e-06
1.07978e-05
1.36387e-06
1.088e-05
1.32577e-06
1.0965e-05
1.27282e-06
1.10522e-05
1.20538e-06
1.11411e-05
1.124e-06
1.12308e-05
1.02941e-06
1.13208e-05
9.22526e-07
1.14104e-05
8.04429e-07
1.14989e-05
6.76335e-07
1.15857e-05
5.39613e-07
1.16702e-05
3.95841e-07
1.17516e-05
2.46972e-07
1.18289e-05
9.56994e-08
1.19014e-05
-5.53247e-08
1.19686e-05
-2.03888e-07
1.20298e-05
-3.47889e-07
1.20845e-05
-4.85148e-07
1.21321e-05
-6.13973e-07
1.21725e-05
-7.31987e-07
1.22048e-05
-8.38989e-07
1.22296e-05
-9.31437e-07
1.22456e-05
-1.01262e-06
1.22549e-05
-1.07472e-06
1.22565e-05
-1.12844e-06
-1.16649e-06
1.15621e-05
1.96495e-06
1.16659e-05
1.84545e-06
1.17678e-05
1.70406e-06
1.1867e-05
1.54208e-06
1.19625e-05
1.36118e-06
1.20532e-05
1.16329e-06
1.21381e-05
9.50662e-07
1.22164e-05
7.25923e-07
1.22871e-05
4.92539e-07
1.23489e-05
2.55766e-07
1.2401e-05
2.06945e-08
1.24429e-05
-2.08376e-07
1.24741e-05
-4.27565e-07
1.24943e-05
-6.33386e-07
1.25033e-05
-8.22911e-07
1.25013e-05
-9.939e-07
1.24887e-05
-1.14485e-06
1.24661e-05
-1.27494e-06
1.24342e-05
-1.38395e-06
1.2394e-05
-1.47203e-06
1.23462e-05
-1.53951e-06
1.22914e-05
-1.58647e-06
1.22296e-05
-1.61243e-06
1.21612e-05
-1.61718e-06
1.20874e-05
-1.60193e-06
1.2009e-05
-1.56823e-06
1.1927e-05
-1.51787e-06
1.18424e-05
-1.45296e-06
1.1756e-05
-1.37569e-06
1.1669e-05
-1.28831e-06
1.15822e-05
-1.19301e-06
1.14971e-05
-1.09185e-06
1.14149e-05
-9.86678e-07
1.13373e-05
-8.78979e-07
1.12656e-05
-7.69671e-07
1.1201e-05
-6.59254e-07
1.11444e-05
-5.4816e-07
1.10966e-05
-4.36825e-07
1.10583e-05
-3.25772e-07
1.10297e-05
-2.15637e-07
1.10111e-05
-1.07182e-07
1.10024e-05
-1.28894e-09
1.10035e-05
1.01074e-07
1.10142e-05
1.98891e-07
1.10339e-05
2.91132e-07
1.10623e-05
3.76782e-07
1.10989e-05
4.54875e-07
1.1143e-05
5.24495e-07
1.1194e-05
5.84769e-07
1.12513e-05
6.34832e-07
1.13143e-05
6.7379e-07
1.13824e-05
7.00747e-07
1.14547e-05
7.14967e-07
1.15302e-05
7.1598e-07
1.16079e-05
7.03489e-07
1.16867e-05
6.77411e-07
1.17655e-05
6.37921e-07
1.1843e-05
5.85454e-07
1.1918e-05
5.20681e-07
1.19895e-05
4.44499e-07
1.20562e-05
3.58007e-07
1.21172e-05
2.62531e-07
1.21713e-05
1.59738e-07
1.22174e-05
5.19353e-08
1.22544e-05
-5.79502e-08
1.22816e-05
-1.67545e-07
1.22985e-05
-2.74811e-07
1.2305e-05
-3.77976e-07
1.23011e-05
-4.75555e-07
1.22869e-05
-5.66335e-07
1.22629e-05
-6.49369e-07
1.22294e-05
-7.23948e-07
1.21871e-05
-7.89531e-07
1.21365e-05
-8.45664e-07
1.20781e-05
-8.91919e-07
1.20124e-05
-9.27956e-07
1.19401e-05
-9.53674e-07
1.18618e-05
-9.69237e-07
1.17784e-05
-9.74912e-07
1.16905e-05
-9.71043e-07
1.1599e-05
-9.58021e-07
1.15045e-05
-9.36245e-07
1.14079e-05
-9.061e-07
1.13101e-05
-8.67933e-07
1.12119e-05
-8.22041e-07
1.11142e-05
-7.6867e-07
1.10178e-05
-7.08018e-07
1.09238e-05
-6.40253e-07
1.0833e-05
-5.65543e-07
1.07464e-05
-4.84088e-07
1.06648e-05
-3.96159e-07
1.0589e-05
-3.02139e-07
1.052e-05
-2.02556e-07
1.04584e-05
-9.81251e-08
1.04049e-05
1.01943e-08
1.03602e-05
1.21292e-07
1.03244e-05
2.34039e-07
1.02978e-05
3.47243e-07
1.02804e-05
4.59639e-07
1.02721e-05
5.69926e-07
1.02729e-05
6.76801e-07
1.02825e-05
7.78995e-07
1.03006e-05
8.75308e-07
1.03269e-05
9.6463e-07
1.03608e-05
1.04595e-06
1.0402e-05
1.11833e-06
1.04501e-05
1.18092e-06
1.05048e-05
1.23285e-06
1.05658e-05
1.27319e-06
1.06331e-05
1.30108e-06
1.07062e-05
1.31581e-06
1.07846e-05
1.31688e-06
1.08677e-05
1.30388e-06
1.0955e-05
1.27658e-06
1.10458e-05
1.23495e-06
1.11394e-05
1.17918e-06
1.12352e-05
1.10963e-06
1.13323e-05
1.02687e-06
1.14301e-05
9.31651e-07
1.15277e-05
8.24895e-07
1.16245e-05
7.07668e-07
1.17196e-05
5.81168e-07
1.18125e-05
4.46743e-07
1.19024e-05
3.05995e-07
1.19883e-05
1.61083e-07
1.20692e-05
1.47548e-08
1.21445e-05
-1.30673e-07
1.22137e-05
-2.73025e-07
1.2276e-05
-4.10178e-07
1.23309e-05
-5.4003e-07
1.23777e-05
-6.60831e-07
1.24163e-05
-7.70541e-07
1.24459e-05
-8.68649e-07
1.24671e-05
-9.52651e-07
1.24789e-05
-1.02439e-06
1.24835e-05
-1.07928e-06
1.24801e-05
-1.12509e-06
-1.15228e-06
1.17488e-05
1.84664e-06
1.1866e-05
1.72826e-06
1.1981e-05
1.5891e-06
1.20925e-05
1.43055e-06
1.21994e-05
1.25427e-06
1.23006e-05
1.06213e-06
1.2395e-05
8.563e-07
1.24815e-05
6.39367e-07
1.2559e-05
4.15037e-07
1.26261e-05
1.88652e-07
1.26821e-05
-3.52589e-08
1.27263e-05
-2.52581e-07
1.27583e-05
-4.59563e-07
1.27778e-05
-6.52923e-07
1.27849e-05
-8.29985e-07
1.27798e-05
-9.88783e-07
1.2763e-05
-1.12809e-06
1.27354e-05
-1.24732e-06
1.26979e-05
-1.34642e-06
1.26514e-05
-1.42553e-06
1.25966e-05
-1.48476e-06
1.25339e-05
-1.52379e-06
1.24636e-05
-1.54209e-06
1.23865e-05
-1.54015e-06
1.23039e-05
-1.51925e-06
1.22165e-05