/*--------------------------------*- C++ -*----------------------------------*\
| =========                 |                                                 |
| \\      /  F ield         | OpenFOAM: The Open Source CFD Toolbox           |
|  \\    /   O peration     | Version:  2206                                  |
|   \\  /    A nd           | Website:  www.openfoam.com                      |
|    \\/     M anipulation  |                                                 |
\*---------------------------------------------------------------------------*/
FoamFile
{
    version     2.0;
    format      ascii;
    arch        "LSB;label=32;scalar=64";
    class       volVectorField;
    location    "19.2";
    object      ddtCorrDdt0(U);
}
// * * * * * * * * * * * * * * * * * * * * * * * * * * * * * * * * * * * * * //

dimensions      [0 1 -2 0 0 0 0];

internalField   nonuniform List<vector> 
1814
(
(-126.677 147.563 0)
(-103.579 133.15 0)
(-77.0111 109.569 0)
(-40.338 88.0575 0)
(-18.1434 64.2305 0)
(14.2844 41.7492 0)
(73.4125 8.97187 0)
(107.548 -14.2567 0)
(138.532 -28.1388 0)
(157.371 -32.1236 0)
(160.582 -26.0779 0)
(154.218 -15.0809 0)
(140.961 -4.4898 0)
(123.459 2.40992 0)
(104.802 3.73625 0)
(87.0777 -1.12434 0)
(71.4267 -11.9696 0)
(57.3916 -28.2064 0)
(42.8142 -46.2483 0)
(29.1767 -63.4995 0)
(15.6154 -77.9782 0)
(1.82425 -88.0329 0)
(-11.6878 -92.4954 0)
(-24.0169 -90.3094 0)
(-34.9582 -83.5067 0)
(-44.3584 -72.9047 0)
(-52.1904 -59.4043 0)
(-58.8346 -43.8282 0)
(-64.5557 -26.876 0)
(-68.5354 -9.32485 0)
(-71.332 8.12999 0)
(-72.9624 25.0853 0)
(-73.6734 40.8054 0)
(-74.0589 55.0365 0)
(-74.1724 67.7197 0)
(-72.8106 77.7934 0)
(-67.1874 82.2934 0)
(-57.7644 81.8986 0)
(-45.0073 77.015 0)
(-30.1226 68.8135 0)
(-12.9391 58.6951 0)
(8.93427 46.3567 0)
(32.432 28.634 0)
(54.5576 11.8385 0)
(71.6794 -1.08516 0)
(80.9945 -8.99606 0)
(81.4157 -11.7965 0)
(77.3397 -11.5335 0)
(70.6873 -10.4791 0)
(62.723 -10.1452 0)
(54.4401 -11.2529 0)
(46.3803 -14.136 0)
(38.6495 -18.8105 0)
(31.0064 -24.9234 0)
(23.1084 -31.5869 0)
(15.0149 -37.7726 0)
(7.01616 -43.0796 0)
(-0.975905 -46.6062 0)
(-8.61052 -47.5419 0)
(-15.5432 -45.7762 0)
(-21.7507 -41.9068 0)
(-27.15 -36.2416 0)
(-31.7836 -29.1748 0)
(-35.8155 -21.0663 0)
(-39.1432 -12.2631 0)
(-41.5964 -3.17534 0)
(-43.5665 6.0137 0)
(-44.963 15.2264 0)
(-45.7178 24.1754 0)
(-45.5236 32.3482 0)
(-43.6768 38.9527 0)
(-39.0772 42.7634 0)
(-32.315 44.3041 0)
(-23.7158 43.7145 0)
(-13.9684 41.2619 0)
(-3.19086 37.3352 0)
(8.64128 31.6324 0)
(19.981 24.084 0)
(29.9468 16.8737 0)
(37.5133 10.6316 0)
(42.2593 5.44387 0)
(44.2625 1.37177 0)
(43.9552 -1.73712 0)
(42.3386 -4.48221 0)
(39.6958 -7.3735 0)
(36.2593 -10.4998 0)
(32.2091 -13.8347 0)
(27.63 -17.3494 0)
(22.5386 -20.9501 0)
(16.9635 -24.4549 0)
(11.0138 -27.5082 0)
(4.9266 -29.6307 0)
(-1.02315 -30.4657 0)
(-6.58409 -29.8804 0)
(-11.5771 -27.9 0)
(-15.9298 -24.6998 0)
(-19.6083 -20.5237 0)
(-22.634 -15.6263 0)
(-25.0551 -10.2626 0)
(-26.801 -4.6993 0)
(-27.9837 0.838852 0)
(-28.7344 6.30583 0)
(-28.9648 11.6048 0)
(-28.5201 16.4672 0)
(-27.1908 20.5747 0)
(-24.6011 23.495 0)
(-20.9412 25.3399 0)
(-16.3469 26.1507 0)
(-11.1091 25.9222 0)
(-5.47096 24.7461 0)
(0.486571 22.756 0)
(6.67315 19.9184 0)
(12.4832 16.2101 0)
(17.6158 12.421 0)
(21.7175 8.80308 0)
(24.5786 5.39615 0)
(26.2235 2.23093 0)
(26.6781 -0.6495 0)
(26.2162 -3.31259 0)
(25.0157 -5.92719 0)
(23.1522 -8.53326 0)
(-125.342 118.821 0)
(-85.8183 103.499 0)
(-54.2326 79.8177 0)
(-22.287 56.9518 0)
(21.0132 26.8373 0)
(73.163 -7.71496 0)
(112.651 -37.1032 0)
(142.045 -49.7051 0)
(158.834 -49.1561 0)
(159.862 -37.7201 0)
(152.619 -20.2935 0)
(139.023 -1.41558 0)
(122.112 13.6507 0)
(105.294 21.7359 0)
(90.3192 21.8182 0)
(77.7498 14.583 0)
(67.1787 1.72172 0)
(57.3722 -14.9937 0)
(46.1626 -33.1366 0)
(33.5744 -49.9091 0)
(20.1786 -63.9413 0)
(5.85831 -73.7142 0)
(-8.73066 -78.3794 0)
(-22.7713 -77.5754 0)
(-35.6086 -71.9926 0)
(-47.2115 -62.8492 0)
(-57.4645 -50.7795 0)
(-66.1946 -36.5218 0)
(-73.0636 -20.987 0)
(-78.6469 -5.08665 0)
(-83.169 10.9602 0)
(-86.9383 26.9477 0)
(-89.8749 42.4298 0)
(-91.145 56.5418 0)
(-88.2706 66.9404 0)
(-79.3383 71.6563 0)
(-65.5971 71.2138 0)
(-48.3723 66.308 0)
(-29.1426 58.4392 0)
(-6.59686 49.2 0)
(18.7917 34.5847 0)
(42.3613 18.2272 0)
(61.2792 5.03282 0)
(72.8387 -3.68058 0)
(76.1991 -7.71623 0)
(74.1112 -7.97353 0)
(69.4097 -6.16656 0)
(63.4503 -4.01353 0)
(57.2839 -2.5737 0)
(51.477 -2.5046 0)
(46.193 -4.15421 0)
(41.2865 -7.52587 0)
(36.385 -12.311 0)
(31.0272 -18.0344 0)
(24.8571 -24.1552 0)
(17.7314 -29.9861 0)
(9.89735 -34.8831 0)
(1.71951 -38.303 0)
(-6.51403 -39.6431 0)
(-14.4609 -38.5331 0)
(-21.8889 -35.3947 0)
(-28.7014 -30.5263 0)
(-34.7796 -24.1671 0)
(-40.0267 -16.7426 0)
(-44.6167 -8.75801 0)
(-48.5359 -0.335018 0)
(-51.6548 8.43158 0)
(-53.5457 17.0897 0)
(-53.5384 24.8157 0)
(-50.3292 30.3274 0)
(-44.4358 33.6511 0)
(-36.186 34.9245 0)
(-26.379 34.4935 0)
(-15.6902 32.7221 0)
(-4.10313 29.751 0)
(7.82543 24.7244 0)
(18.6074 18.964 0)
(27.5095 13.9244 0)
(33.8944 9.72086 0)
(37.8242 6.34375 0)
(39.6741 3.73726 0)
(39.8609 1.68391 0)
(39.1726 -0.196554 0)
(37.81 -2.22816 0)
(35.8943 -4.54202 0)
(33.4548 -7.15293 0)
(30.4834 -10.0177 0)
(26.9522 -13.0439 0)
(22.8187 -16.0898 0)
(18.0539 -18.9964 0)
(12.6852 -21.5743 0)
(6.87837 -23.5266 0)
(0.873133 -24.5055 0)
(-5.04447 -24.2306 0)
(-10.7044 -22.745 0)
(-15.9746 -20.1203 0)
(-20.6707 -16.5224 0)
(-24.7107 -12.2472 0)
(-28.0466 -7.56552 0)
(-30.6581 -2.67113 0)
(-32.4998 2.32408 0)
(-33.43 7.20516 0)
(-33.209 11.6312 0)
(-31.443 15.1675 0)
(-28.3956 17.7519 0)
(-24.1646 19.4129 0)
(-19.0159 20.2371 0)
(-13.2782 20.2756 0)
(-7.19754 19.6385 0)
(-0.782292 18.3129 0)
(5.61572 15.9961 0)
(11.4698 13.3102 0)
(16.473 10.7221 0)
(20.362 8.26344 0)
(23.104 5.93184 0)
(24.7952 3.73886 0)
(25.5166 1.68528 0)
(25.4497 -0.28247 0)
(24.8007 -2.27416 0)
(23.6113 -4.33352 0)
(21.9211 -6.42671 0)
(-76.8007 85.3814 0)
(-36.2155 63.443 0)
(15.6421 33.3676 0)
(64.1056 9.82237 0)
(103.519 -25.1746 0)
(129.438 -51.4889 0)
(139.096 -62.6176 0)
(134.313 -59.0526 0)
(123.738 -45.9412 0)
(111.18 -26.4763 0)
(99.1369 -4.09704 0)
(87.1585 15.8352 0)
(76.3285 29.5002 0)
(69.0496 34.6094 0)
(65.1837 31.4903 0)
(63.0618 22.1196 0)
(60.809 8.68279 0)
(56.7495 -6.79353 0)
(49.701 -22.6261 0)
(39.1209 -37.2594 0)
(25.9752 -49.5286 0)
(11.1995 -58.3932 0)
(-4.36057 -62.9427 0)
(-19.8855 -62.7403 0)
(-34.6747 -58.3254 0)
(-48.3411 -50.4595 0)
(-60.746 -39.9878 0)
(-71.8447 -27.6988 0)
(-81.6086 -14.0466 0)
(-90.0023 0.818157 0)
(-96.7848 16.6342 0)
(-100.927 32.2014 0)
(-100.405 45.1156 0)
(-92.8405 53.039 0)
(-79.1898 55.8908 0)
(-61.0237 54.2931 0)
(-40.4887 49.9676 0)
(-18.1863 44.1811 0)
(6.6283 34.5627 0)
(28.7417 21.0934 0)
(46.2153 9.79317 0)
(57.2916 2.13453 0)
(61.7679 -2.2111 0)
(61.0216 -3.78683 0)
(57.9038 -3.47168 0)
(53.5724 -2.13637 0)
(49.1877 -0.399991 0)
(45.4495 1.1331 0)
(42.5735 1.82771 0)
(40.4437 1.21321 0)
(38.7213 -0.867541 0)
(36.9337 -4.2271 0)
(34.5692 -8.49558 0)
(31.1965 -13.2564 0)
(26.5497 -18.1181 0)
(20.5318 -22.7643 0)
(13.1887 -26.8414 0)
(4.76321 -29.7729 0)
(-4.26609 -30.8981 0)
(-13.3551 -30.0293 0)
(-22.2254 -27.3277 0)
(-30.5511 -23.0352 0)
(-38.0613 -17.4345 0)
(-44.5255 -10.8061 0)
(-49.7161 -3.4441 0)
(-53.3246 4.14341 0)
(-54.8974 11.2449 0)
(-53.2535 16.9451 0)
(-48.9101 20.9588 0)
(-42.0677 23.3062 0)
(-33.4717 24.2338 0)
(-23.9996 24.0662 0)
(-14.1186 23.1738 0)
(-3.72474 21.2171 0)
(6.09161 17.5322 0)
(14.5438 14.0464 0)
(21.153 11.0929 0)
(25.8247 8.55392 0)
(28.8687 6.4414 0)
(30.6923 4.73056 0)
(31.6397 3.28877 0)
(31.9467 1.91522 0)
(31.8602 0.466973 0)
(31.3649 -1.12741 0)
(30.4166 -2.9356 0)
(28.9433 -4.98068 0)
(26.8703 -7.22006 0)
(24.1373 -9.56871 0)
(20.7042 -11.9115 0)
(16.5597 -14.1191 0)
(11.7296 -16.0612 0)
(6.28951 -17.5787 0)
(0.481185 -18.4062 0)
(-5.45289 -18.1129 0)
(-11.3044 -16.7351 0)
(-16.8144 -14.5138 0)
(-21.7291 -11.5494 0)
(-25.8631 -8.01328 0)
(-29.0811 -4.12247 0)
(-31.2579 -0.133451 0)
(-32.2415 3.66844 0)
(-31.6367 6.96954 0)
(-29.713 9.64094 0)
(-26.5302 11.6632 0)
(-22.3432 13.0548 0)
(-17.4807 13.843 0)
(-12.2635 14.1489 0)
(-6.81393 14.0404 0)
(-1.165 13.2833 0)
(4.21445 11.7466 0)
(9.00997 10.1794 0)
(13.0006 8.66196 0)
(16.1184 7.1606 0)
(18.4242 5.70378 0)
(20.0094 4.30076 0)
(20.9732 2.92682 0)
(21.3333 1.53856 0)
(21.2562 0.0998487 0)
(20.7505 -1.41501 0)
(19.8089 -2.99408 0)
(18.4259 -4.60621 0)
(36.2403 29.0862 0)
(74.9166 11.7141 0)
(100.406 -13.0914 0)
(114.588 -31.1799 0)
(117.676 -42.1937 0)
(109.375 -46.2123 0)
(93.7861 -43.9772 0)
(74.9147 -35.4262 0)
(56.368 -23.786 0)
(42.4224 -10.853 0)
(34.2908 2.26153 0)
(28.8229 24.1646 0)
(29.8603 31.8871 0)
(35.4359 32.7949 0)
(42.691 27.928 0)
(49.2956 19.1111 0)
(53.4117 8.08784 0)
(53.7666 -3.72649 0)
(49.9601 -15.2782 0)
(41.9553 -26.0417 0)
(30.0558 -35.6056 0)
(14.9865 -42.9067 0)
(-1.73293 -46.5737 0)
(-18.6399 -46.5821 0)
(-35.2226 -42.9482 0)
(-50.7803 -36.103 0)
(-64.8005 -26.5358 0)
(-76.9338 -14.8178 0)
(-86.6843 -1.83458 0)
(-92.9145 11.1703 0)
(-93.4786 22.4313 0)
(-87.7163 30.2179 0)
(-76.301 34.1924 0)
(-60.3389 34.9467 0)
(-42.2789 33.5728 0)
(-23.6358 31.4939 0)
(-3.75954 27.2937 0)
(13.7747 19.1804 0)
(27.5459 12.178 0)
(36.6418 7.41739 0)
(40.9512 4.22519 0)
(41.242 2.06764 0)
(39.6724 0.840782 0)
(37.0963 0.377032 0)
(34.3728 0.563825 0)
(32.1581 1.26586 0)
(30.7506 2.12946 0)
(30.209 2.66518 0)
(30.3114 2.47172 0)
(30.8355 1.38216 0)
(31.2333 -0.593121 0)
(30.9033 -3.27483 0)
(29.5812 -6.42514 0)
(26.9993 -9.80669 0)
(23.0474 -13.1517 0)
(17.7263 -16.1903 0)
(11.1274 -18.7552 0)
(3.36992 -20.6397 0)
(-5.20286 -21.2025 0)
(-13.8667 -20.0818 0)
(-22.2436 -17.7179 0)
(-29.8989 -14.205 0)
(-36.3524 -9.78396 0)
(-41.175 -4.82656 0)
(-43.9999 0.165039 0)
(-44.0974 4.65378 0)
(-41.8826 8.3153 0)
(-37.6622 11.1121 0)
(-31.9405 13.1189 0)
(-25.3487 14.3865 0)
(-18.4567 15.0588 0)
(-11.3869 15.1567 0)
(-4.26835 14.1576 0)
(2.17008 12.3885 0)
(7.65951 10.761 0)
(11.9923 9.16355 0)
(15.2891 7.56345 0)
(17.771 6.06573 0)
(19.614 4.73215 0)
(20.9585 3.55744 0)
(21.9212 2.4997 0)
(22.5679 1.47623 0)
(22.8358 0.41075 0)
(22.7659 -0.754143 0)
(22.2971 -2.06353 0)
(21.3632 -3.52638 0)
(19.8991 -5.11055 0)
(17.8535 -6.75373 0)
(15.196 -8.36657 0)
(11.9253 -9.84246 0)
(8.0671 -11.0852 0)
(3.66688 -12.0085 0)
(-1.09893 -12.436 0)
(-6.06077 -12.1013 0)
(-10.9057 -11.0233 0)
(-15.3528 -9.37221 0)
(-19.1244 -7.22757 0)
(-21.9932 -4.74341 0)
(-23.8093 -2.12043 0)
(-24.3867 0.427687 0)
(-23.7735 2.70656 0)
(-22.1736 4.66915 0)
(-19.7241 6.30068 0)
(-16.643 7.55688 0)
(-13.1701 8.46591 0)
(-9.48902 9.07413 0)
(-5.65523 9.35256 0)
(-1.76717 9.0725 0)
(1.87179 8.43854 0)
(5.08163 7.75899 0)
(7.76317 6.97873 0)
(9.94104 6.11085 0)
(11.6731 5.20577 0)
(13.0046 4.28754 0)
(13.9756 3.3568 0)
(14.6275 2.40508 0)
(14.9407 1.40165 0)
(14.961 0.334472 0)
(14.6635 -0.787819 0)
(14.0211 -1.95062 0)
(13.0142 -3.12889 0)
(74.6522 3.07546 0)
(78.8868 -3.49595 0)
(77.4666 -9.7702 0)
(71.2867 -16.0816 0)
(60.8748 -22.2291 0)
(46.7398 -26.7046 0)
(31.6666 -25.0987 0)
(17.5994 -19.6859 0)
(6.87638 -11.7545 0)
(-0.275238 -5.63001 0)
(-4.23677 11.2897 0)
(-2.24762 19.4699 0)
(6.16785 22.8918 0)
(16.6073 21.9644 0)
(26.6186 17.7567 0)
(34.7581 11.5347 0)
(40.0067 4.32661 0)
(41.742 -3.17249 0)
(39.5013 -10.2727 0)
(33.7814 -16.5451 0)
(24.7424 -21.8292 0)
(12.8293 -26.1542 0)
(-1.35683 -28.749 0)
(-16.3501 -28.1405 0)
(-30.8709 -25.1241 0)
(-43.9798 -19.9251 0)
(-54.615 -13.149 0)
(-61.7168 -5.64454 0)
(-63.8689 1.35051 0)
(-61.2674 6.59819 0)
(-54.763 10.6541 0)
(-44.9621 15.0259 0)
(-34.0335 16.7883 0)
(-22.8017 18.1622 0)
(-11.6361 18.3788 0)
(-1.71904 16.1006 0)
(6.33594 13.5413 0)
(12.2393 11.5444 0)
(15.8178 9.61167 0)
(17.645 7.40391 0)
(18.3722 5.28205 0)
(18.5333 3.54763 0)
(18.336 2.32976 0)
(18.0187 1.68046 0)
(17.7961 1.47772 0)
(17.7939 1.53327 0)
(18.213 1.6536 0)
(19.0269 1.62649 0)
(20.0449 1.24928 0)
(20.9857 0.414886 0)
(21.547 -0.86212 0)
(21.3545 -2.5205 0)
(20.3674 -4.48484 0)
(18.4188 -6.60944 0)
(15.4619 -8.70762 0)
(11.5327 -10.5832 0)
(6.73792 -12.0563 0)
(1.22599 -13.0381 0)
(-4.84115 -13.3901 0)
(-10.9659 -12.6288 0)
(-16.4738 -10.969 0)
(-21.1162 -8.748 0)
(-24.5411 -6.04899 0)
(-26.505 -3.27537 0)
(-26.8068 -0.455028 0)
(-25.8587 2.19522 0)
(-23.851 4.61788 0)
(-20.9996 6.74644 0)
(-17.5943 8.38831 0)
(-13.8219 9.54187 0)
(-9.76134 10.0434 0)
(-5.67502 9.77264 0)
(-1.80413 9.22413 0)
(1.65797 8.47686 0)
(4.59642 7.46468 0)
(7.03255 6.32561 0)
(9.00844 5.20702 0)
(10.5566 4.17989 0)
(11.7278 3.26792 0)
(12.5877 2.4675 0)
(13.1973 1.74751 0)
(13.575 1.05331 0)
(13.7506 0.317004 0)
(13.7119 -0.510195 0)
(13.4144 -1.4427 0)
(12.8127 -2.47549 0)
(11.8602 -3.5847 0)
(10.5182 -4.72435 0)
(8.76992 -5.83157 0)
(6.62313 -6.82842 0)
(4.11093 -7.61877 0)
(1.29433 -8.11623 0)
(-1.7736 -8.28049 0)
(-4.94094 -8.07214 0)
(-7.87591 -7.32151 0)
(-10.4033 -6.22724 0)
(-12.4023 -4.87655 0)
(-13.7591 -3.34492 0)
(-14.3825 -1.72827 0)
(-14.3261 -0.134059 0)
(-13.6866 1.38291 0)
(-12.5459 2.76768 0)
(-11.012 3.96838 0)
(-9.19108 4.95828 0)
(-7.17181 5.71951 0)
(-5.01891 6.20536 0)
(-2.81837 6.33931 0)
(-0.708425 6.30216 0)
(1.24025 6.12177 0)
(2.97723 5.75932 0)
(4.48362 5.26001 0)
(5.77673 4.67922 0)
(6.85871 4.0464 0)
(7.7364 3.37834 0)
(8.42024 2.68597 0)
(8.91949 1.97146 0)
(9.22345 1.21647 0)
(9.31232 0.411937 0)
(9.1879 -0.426653 0)
(8.82383 -1.28491 0)
(8.20517 -2.14463 0)
(27.7334 10.2409 0)
(27.4838 3.50642 0)
(26.3036 -4.21688 0)
(24.2113 -10.9451 0)
(19.7008 -14.6867 0)
(13.1396 -15.7255 0)
(5.45202 -14.3247 0)
(-1.39684 -11.1026 0)
(-7.14205 -6.32219 0)
(-10.1853 0.437964 0)
(-9.96793 6.4678 0)
(-5.37396 11.1766 0)
(1.48019 13.0292 0)
(8.6398 12.2801 0)
(15.0689 9.68227 0)
(20.0714 5.84792 0)
(23.2145 1.38757 0)
(24.2752 -3.14416 0)
(22.9721 -7.33958 0)
(19.6819 -10.9961 0)
(14.506 -13.8668 0)
(7.76205 -15.749 0)
(-0.0519583 -16.7019 0)
(-8.56899 -16.7788 0)
(-16.4891 -15.0783 0)
(-22.8984 -12.3821 0)
(-27.3961 -8.88664 0)
(-29.6719 -5.4871 0)
(-29.834 -1.56094 0)
(-28.542 2.40758 0)
(-26.0961 6.04906 0)
(-22.6424 9.03386 0)
(-18.4026 11.273 0)
(-13.9457 12.4311 0)
(-9.31517 12.6425 0)
(-4.72371 12.1206 0)
(-0.593855 10.9481 0)
(2.95933 9.06533 0)
(5.88166 6.96407 0)
(8.12968 5.02987 0)
(9.66174 3.45375 0)
(10.538 2.27951 0)
(10.9121 1.50991 0)
(10.9853 1.10367 0)
(10.9672 0.968956 0)
(11.0046 0.979868 0)
(11.1747 0.997477 0)
(11.4821 0.89325 0)
(11.8544 0.562666 0)
(12.1705 -0.0424335 0)
(12.2536 -0.91142 0)
(12.0077 -2.02473 0)
(11.3112 -3.32748 0)
(10.0818 -4.71992 0)
(8.28391 -6.07981 0)
(5.94665 -7.28408 0)
(3.14651 -8.20704 0)
(0.00317573 -8.71177 0)
(-3.3111 -8.7329 0)
(-6.56321 -8.28825 0)
(-9.49483 -7.38504 0)
(-11.8769 -6.03259 0)
(-13.5629 -4.33982 0)
(-14.5196 -2.45762 0)
(-14.7246 -0.562264 0)
(-14.2548 1.44317 0)
(-13.1422 3.18919 0)
(-11.567 4.6111 0)
(-9.60582 5.69847 0)
(-7.34856 6.41656 0)
(-5.00518 6.77304 0)
(-2.73085 6.83269 0)
(-0.635193 6.58635 0)
(1.22292 6.08303 0)
(2.80566 5.43566 0)
(4.1029 4.72902 0)
(5.13105 4.01043 0)
(5.92783 3.3135 0)
(6.53865 2.65768 0)
(7.00601 2.0449 0)
(7.35589 1.46135 0)
(7.61774 0.876792 0)
(7.77869 0.25618 0)
(7.81444 -0.419133 0)
(7.69214 -1.15432 0)
(7.37747 -1.94523 0)
(6.84026 -2.77499 0)
(6.05537 -3.61022 0)
(5.01177 -4.4048 0)
(3.72078 -5.10686 0)
(2.21207 -5.64659 0)
(0.510301 -5.93973 0)
(-1.3248 -6.06497 0)
(-3.10396 -5.88603 0)
(-4.75464 -5.42571 0)
(-6.19076 -4.70743 0)
(-7.33978 -3.76959 0)
(-8.14989 -2.67998 0)
(-8.60035 -1.50477 0)
(-8.69731 -0.299641 0)
(-8.46104 0.870303 0)
(-7.92266 1.9431 0)
(-7.12392 2.87862 0)
(-6.11253 3.64779 0)
(-4.93716 4.23647 0)
(-3.64516 4.63591 0)
(-2.30615 4.83738 0)
(-0.993576 4.86039 0)
(0.259428 4.72077 0)
(1.44997 4.46423 0)
(2.54084 4.10496 0)
(3.50096 3.67825 0)
(4.32609 3.20182 0)
(5.01522 2.68891 0)
(5.56996 2.14893 0)
(5.99382 1.58521 0)
(6.28024 0.992259 0)
(6.41714 0.363537 0)
(6.39063 -0.28954 0)
(6.19885 -0.949853 0)
(5.83163 -1.60534 0)
(12.6212 5.44008 0)
(15.4679 1.23972 0)
(16.693 -6.2463 0)
(15.9711 -10.3344 0)
(13.2632 -11.6171 0)
(9.4867 -11.6632 0)
(5.40014 -9.95291 0)
(1.77337 -6.92239 0)
(-0.76434 -3.91687 0)
(-2.4294 0.314468 0)
(-2.39814 4.85997 0)
(-0.413876 7.77541 0)
(2.73651 8.66171 0)
(6.02078 7.85026 0)
(8.96341 5.81783 0)
(11.1699 3.05498 0)
(12.3902 0.00856541 0)
(12.5221 -2.97214 0)
(11.5033 -5.68047 0)
(9.57678 -8.07519 0)
(6.77384 -9.9826 0)
(3.20977 -11.1791 0)
(-0.990266 -11.7047 0)
(-5.19104 -11.3979 0)
(-9.16254 -10.353 0)
(-12.6924 -8.55715 0)
(-15.4301 -6.0414 0)
(-17.2587 -3.17307 0)
(-18.1681 -0.233437 0)
(-18.0461 2.49706 0)
(-16.877 4.82391 0)
(-14.827 6.75127 0)
(-12.1042 7.96599 0)
(-9.00793 8.43424 0)
(-5.5187 8.37924 0)
(-2.20534 7.70561 0)
(0.592887 6.71806 0)
(2.86861 5.65078 0)
(4.553 4.61519 0)
(5.66283 3.66794 0)
(6.30384 2.86532 0)
(6.59149 2.24363 0)
(6.67673 1.80814 0)
(6.67647 1.5311 0)
(6.67424 1.3577 0)
(6.74079 1.22102 0)
(6.91269 1.05559 0)
(7.16494 0.801905 0)
(7.44266 0.411982 0)
(7.66649 -0.135925 0)
(7.74455 -0.8427 0)
(7.58577 -1.69568 0)
(7.14541 -2.65799 0)
(6.36369 -3.65704 0)
(5.23235 -4.61837 0)
(3.76603 -5.46622 0)
(2.01115 -6.11264 0)
(0.0490091 -6.47541 0)
(-2.0041 -6.49873 0)
(-4.04797 -6.15632 0)
(-5.87948 -5.44916 0)
(-7.39314 -4.46547 0)
(-8.52516 -3.26894 0)
(-9.24342 -1.9366 0)
(-9.51443 -0.661483 0)
(-9.33629 0.750708 0)
(-8.76852 2.17803 0)
(-7.84637 3.26307 0)
(-6.65262 4.17539 0)
(-5.27953 4.84755 0)
(-3.74914 5.23089 0)
(-2.20229 5.30439 0)
(-0.722818 5.15047 0)
(0.642049 4.82695 0)
(1.84534 4.3704 0)
(2.87059 3.83031 0)
(3.72152 3.25693 0)
(4.40974 2.68711 0)
(4.95287 2.14058 0)
(5.36645 1.6209 0)
(5.67313 1.11958 0)
(5.88203 0.620012 0)
(5.98705 0.103665 0)
(5.97609 -0.44326 0)
(5.83218 -1.02565 0)
(5.53671 -1.63891 0)
(5.0725 -2.26683 0)
(4.42862 -2.88417 0)
(3.60395 -3.46071 0)
(2.62236 -3.96406 0)
(1.53625 -4.3645 0)
(0.20877 -4.65139 0)
(-1.20836 -4.68098 0)
(-2.49502 -4.50308 0)
(-3.73291 -4.11766 0)
(-4.83632 -3.53249 0)
(-5.75067 -2.81875 0)
(-6.43515 -2.00383 0)
(-6.86183 -1.12301 0)
(-7.01958 -0.221789 0)
(-6.89809 0.650952 0)
(-6.5333 1.45267 0)
(-5.9456 2.15545 0)
(-5.17111 2.73712 0)
(-4.25056 3.1837 0)
(-3.22504 3.49165 0)
(-2.14089 3.66044 0)
(-1.04163 3.6977 0)
(0.0354286 3.60281 0)
(1.03102 3.41504 0)
(1.96953 3.16459 0)
(2.82329 2.83751 0)
(3.55749 2.47714 0)
(4.17834 2.08264 0)
(4.6841 1.66066 0)
(5.07615 1.21602 0)
(5.34702 0.749668 0)
(5.48637 0.262065 0)
(5.48511 -0.242628 0)
(5.33943 -0.747288 0)
(5.04753 -1.24328 0)
(15.5564 1.80837 0)
(16.5877 -1.93268 0)
(15.8953 -4.8699 0)
(13.6082 -6.83089 0)
(10.1187 -7.67446 0)
(6.51864 -7.35175 0)
(3.32387 -5.98403 0)
(0.698361 -3.77012 0)
(-1.09349 -1.42385 0)
(-1.80668 1.88205 0)
(-1.10162 4.18113 0)
(0.901715 5.70921 0)
(3.54243 6.00735 0)
(6.18024 5.22733 0)
(8.39215 3.66554 0)
(9.87051 1.62972 0)
(10.4664 -0.561083 0)
(10.1526 -2.65545 0)
(8.99507 -4.52174 0)
(7.11248 -6.10648 0)
(4.6528 -7.32303 0)
(1.53981 -8.09012 0)
(-1.89935 -8.34392 0)
(-5.20501 -7.97224 0)
(-8.35782 -6.97601 0)
(-11.0924 -5.57957 0)
(-13.2051 -3.91696 0)
(-14.5538 -2.10739 0)
(-15.0241 -0.255807 0)
(-14.7032 1.49395 0)
(-13.6441 3.064 0)
(-11.9574 4.35701 0)
(-9.78234 5.27991 0)
(-7.28022 5.75731 0)
(-4.8192 5.90506 0)
(-2.5517 5.6061 0)
(-0.401842 5.03514 0)
(1.43495 4.38655 0)
(2.89495 3.66765 0)
(4.01876 2.96398 0)
(4.85503 2.34249 0)
(5.46439 1.83314 0)
(5.91156 1.44224 0)
(6.25872 1.15931 0)
(6.5567 0.952311 0)
(6.83117 0.776677 0)
(7.0874 0.589621 0)
(7.31057 0.354054 0)
(7.47369 0.0415365 0)
(7.51565 -0.361334 0)
(7.39555 -0.858815 0)
(7.07401 -1.44318 0)
(6.50889 -2.08621 0)
(5.66896 -2.7456 0)
(4.54447 -3.37045 0)
(3.16078 -3.90312 0)
(1.57648 -4.29397 0)
(-0.165545 -4.47651 0)
(-2.03963 -4.51723 0)
(-3.84763 -4.27969 0)
(-5.44902 -3.7988 0)
(-6.84242 -3.12724 0)
(-7.93903 -2.29026 0)
(-8.68142 -1.27064 0)
(-9.01301 -0.384845 0)
(-8.96717 0.616165 0)
(-8.50605 1.61657 0)
(-7.67159 2.35173 0)
(-6.56427 2.9562 0)
(-5.26741 3.40031 0)
(-3.86469 3.68587 0)
(-2.3807 3.76982 0)
(-0.902399 3.63746 0)
(0.480169 3.44653 0)
(1.71495 3.15478 0)
(2.79583 2.79385 0)
(3.71743 2.40172 0)
(4.48037 2.003 0)
(5.09241 1.6107 0)
(5.56539 1.22661 0)
(5.90422 0.845727 0)
(6.11912 0.462092 0)
(6.20732 0.067102 0)
(6.15951 -0.346867 0)
(5.9646 -0.781018 0)
(5.61058 -1.23068 0)
(5.08799 -1.68452 0)
(4.39335 -2.12539 0)
(3.529 -2.53155 0)
(2.50407 -2.88316 0)
(1.32944 -3.16817 0)
(0.102232 -3.36407 0)
(-1.15546 -3.35166 0)
(-2.46587 -3.19338 0)
(-3.68214 -2.917 0)
(-4.75528 -2.51813 0)
(-5.63992 -2.01681 0)
(-6.30591 -1.43997 0)
(-6.72486 -0.819588 0)
(-6.89032 -0.186658 0)
(-6.79197 0.428663 0)
(-6.45943 0.996777 0)
(-5.91345 1.49706 0)
(-5.18523 1.91131 0)
(-4.31492 2.23226 0)
(-3.34013 2.45038 0)
(-2.30659 2.5658 0)
(-1.2517 2.59428 0)
(-0.210157 2.54528 0)
(0.786898 2.43265 0)
(1.7053 2.26215 0)
(2.55259 2.02947 0)
(3.3041 1.77517 0)
(3.92873 1.49268 0)
(4.4387 1.18948 0)
(4.82794 0.869733 0)
(5.09029 0.535626 0)
(5.22079 0.189404 0)
(5.20647 -0.165552 0)
(5.05277 -0.520824 0)
(4.757 -0.864923 0)
(15.5831 1.52344 0)
(15.6687 -0.632039 0)
(14.3737 -2.69469 0)
(11.9064 -4.10902 0)
(8.96601 -4.77579 0)
(6.00533 -4.32319 0)
(3.19977 -3.4265 0)
(1.12545 -2.19229 0)
(0.0178879 -0.776044 0)
(-0.0173818 0.736202 0)
(1.03625 2.12977 0)
(3.00821 3.07054 0)
(5.26978 3.22988 0)
(7.3944 2.85631 0)
(9.07638 2.04769 0)
(10.0553 0.955785 0)
(10.185 -0.258062 0)
(9.51838 -1.47238 0)
(8.11899 -2.60564 0)
(6.0775 -3.58072 0)
(3.55181 -4.37421 0)
(0.588358 -5.05655 0)
(-2.62369 -4.94415 0)
(-5.79538 -4.63517 0)
(-8.7447 -4.09464 0)
(-11.2475 -3.31775 0)
(-13.1402 -2.34783 0)
(-14.3192 -1.27208 0)
(-14.7251 -0.163312 0)
(-14.4028 0.887423 0)
(-13.4001 1.80105 0)
(-11.8273 2.52154 0)
(-9.8239 3.01422 0)
(-7.56229 3.27291 0)
(-5.2369 3.29829 0)
(-3.00994 3.18667 0)
(-0.838931 3.01331 0)
(1.08337 2.62244 0)
(2.62269 2.20365 0)
(3.88379 1.81263 0)
(4.88976 1.47132 0)
(5.67434 1.19224 0)
(6.28266 0.976753 0)
(6.76078 0.815383 0)
(7.14482 0.691165 0)
(7.45357 0.581673 0)
(7.69304 0.46066 0)
(7.84811 0.305053 0)
(7.89633 0.0997882 0)
(7.80663 -0.162418 0)
(7.54188 -0.482951 0)
(7.06488 -0.854323 0)
(6.35025 -1.25803 0)
(5.38723 -1.66744 0)
(4.18479 -2.05345 0)
(2.76557 -2.38727 0)
(1.19244 -2.64503 0)
(-0.593376 -2.82701 0)
(-2.45507 -2.79501 0)
(-4.15633 -2.60315 0)
(-5.7505 -2.28295 0)
(-7.11155 -1.86934 0)
(-8.16347 -1.37396 0)
(-8.84524 -0.825913 0)
(-9.14662 -0.258721 0)
(-9.06609 0.319241 0)
(-8.59207 0.860282 0)
(-7.76945 1.31856 0)
(-6.67494 1.70004 0)
(-5.37686 1.97673 0)
(-3.94139 2.15682 0)
(-2.50643 2.26097 0)
(-0.965567 2.31628 0)
(0.538476 2.17026 0)
(1.83406 1.96751 0)
(2.9943 1.7406 0)
(4.00071 1.50194 0)
(4.84209 1.26163 0)
(5.51821 1.0253 0)
(6.03442 0.793653 0)
(6.39577 0.563268 0)
(6.60084 0.328632 0)
(6.65507 0.0855582 0)
(6.55048 -0.169655 0)
(6.28181 -0.437107 0)
(5.84452 -0.713735 0)
(5.23614 -0.992383 0)
(4.46003 -1.26308 0)
(3.52672 -1.51416 0)
(2.45945 -1.73468 0)
(1.31601 -1.91675 0)
(0.0315679 -2.04009 0)
(-1.30537 -2.0279 0)
(-2.57183 -1.92834 0)
(-3.76768 -1.75488 0)
(-4.83509 -1.51418 0)
(-5.72049 -1.21871 0)
(-6.38928 -0.882059 0)
(-6.8155 -0.520924 0)
(-6.99248 -0.152427 0)
(-6.91445 0.207184 0)
(-6.60292 0.54298 0)
(-6.0788 0.840646 0)
(-5.37264 1.08991 0)
(-4.52153 1.28497 0)
(-3.56504 1.42146 0)
(-2.54342 1.50066 0)
(-1.49465 1.52442 0)
(-0.45669 1.49683 0)
(0.54105 1.43163 0)
(1.46726 1.34337 0)
(2.3269 1.2561 0)
(3.09096 1.08484 0)
(3.73202 0.912726 0)
(4.25888 0.731865 0)
(4.66055 0.542315 0)
(4.92896 0.344984 0)
(5.06143 0.139045 0)
(5.05088 -0.0716862 0)
(4.89747 -0.284308 0)
(4.6057 -0.489693 0)
(14.6807 0.497583 0)
(15.0011 -0.209752 0)
(13.8731 -0.828635 0)
(11.5935 -1.20028 0)
(8.76614 -1.28966 0)
(5.90189 -1.27495 0)
(3.32058 -1.0245 0)
(1.41344 -0.642572 0)
(0.409209 -0.180404 0)
(0.465253 0.336681 0)
(1.55931 0.744144 0)
(3.34558 1.05524 0)
(5.49078 1.06729 0)
(7.69122 0.936129 0)
(9.49876 0.665233 0)
(10.6542 0.297893 0)
(11.0055 -0.116025 0)
(10.4914 -0.527554 0)
(9.12924 -0.901437 0)
(7.00218 -1.22566 0)
(4.22335 -1.48469 0)
(1.31327 -1.72691 0)
(-1.66509 -1.63361 0)
(-4.93602 -1.51088 0)
(-7.95543 -1.32699 0)
(-10.5322 -1.07685 0)
(-12.5275 -0.771712 0)
(-13.8463 -0.434537 0)
(-14.4398 -0.0853628 0)
(-14.3078 0.249909 0)
(-13.5075 0.545161 0)
(-12.1395 0.786015 0)
(-10.3313 0.956957 0)
(-8.24545 1.03882 0)
(-6.04559 1.04423 0)
(-3.85108 1.05807 0)
(-1.90289 1.11324 0)
(-0.181824 0.917395 0)
(1.4171 0.76444 0)
(2.76903 0.627118 0)
(3.88498 0.508923 0)
(4.80244 0.412805 0)
(5.56387 0.338035 0)
(6.2093 0.281995 0)
(6.76894 0.23903 0)
(7.25828 0.20088 0)
(7.67566 0.159981 0)
(8.00376 0.108959 0)
(8.21315 0.042127 0)
(8.26621 -0.0451177 0)
(8.12148 -0.153201 0)
(7.73784 -0.278438 0)
(7.08269 -0.413804 0)
(6.13885 -0.550424 0)
(4.90759 -0.680154 0)
(3.41079 -0.798209 0)
(1.67922 -0.905946 0)
(-0.0831297 -1.02346 0)
(-1.82106 -0.929415 0)
(-3.62359 -0.856192 0)
(-5.29219 -0.757692 0)
(-6.73665 -0.627413 0)
(-7.88864 -0.469773 0)
(-8.69387 -0.292097 0)
(-9.12823 -0.113043 0)
(-9.18126 0.0754079 0)
(-8.84994 0.258281 0)
(-8.17078 0.411503 0)
(-7.20039 0.536319 0)
(-5.99447 0.626027 0)
(-4.62122 0.683968 0)
(-3.14071 0.738901 0)
(-1.76182 0.869581 0)
(-0.431036 0.766656 0)
(0.934078 0.68168 0)
(2.18672 0.601959 0)
(3.30063 0.521641 0)
(4.26834 0.443075 0)
(5.08782 0.366497 0)
(5.75875 0.291648 0)
(6.2796 0.217006 0)
(6.64664 0.139645 0)
(6.85319 0.0576654 0)
(6.89053 -0.029258 0)
(6.74789 -0.12133 0)
(6.41552 -0.217225 0)
(5.8863 -0.314518 0)
(5.15965 -0.409679 0)
(4.24135 -0.498908 0)
(3.14377 -0.579061 0)
(1.87801 -0.653478 0)
(0.655017 -0.768954 0)
(-0.543671 -0.710137 0)
(-1.86145 -0.653368 0)
(-3.11084 -0.586866 0)
(-4.23409 -0.505108 0)
(-5.18799 -0.407953 0)
(-5.93741 -0.299276 0)
(-6.45806 -0.182994 0)
(-6.73724 -0.0649602 0)
(-6.77332 0.0508307 0)
(-6.57603 0.160108 0)
(-6.16413 0.256999 0)
(-5.56542 0.339328 0)
(-4.81384 0.404013 0)
(-3.94558 0.450279 0)
(-2.99857 0.479151 0)
(-2.00833 0.488852 0)
(-1.01272 0.482976 0)
(-0.0346731 0.465494 0)
(0.899777 0.439319 0)
(1.72711 0.424618 0)
(2.47675 0.360265 0)
(3.15521 0.302191 0)
(3.72272 0.2439 0)
(4.17003 0.183252 0)
(4.49025 0.119409 0)
(4.6774 0.0535604 0)
(4.7264 -0.014852 0)
(4.63393 -0.0835938 0)
(4.40053 -0.151596 0)
(-4.22563 132.715 0)
(-16.1759 153.613 0)
(-25.2738 166.895 0)
(-29.709 168.339 0)
(-30.3961 160.801 0)
(-28.4322 145.99 0)
(-24.4783 124.85 0)
(-19.3425 99.2523 0)
(-13.531 71.1735 0)
(-6.90297 43.6867 0)
(-0.345857 19.6932 0)
(7.02394 5.02306 0)
(12.7639 -26.2337 0)
(9.70934 -41.0815 0)
(7.39364 -54.2688 0)
(3.33254 -67.2272 0)
(-1.41875 -80.4183 0)
(-9.33603 -93.8779 0)
(-15.3385 -107.217 0)
(-21.2313 -119.292 0)
(-25.5267 -128.089 0)
(-26.4459 -129.601 0)
(-24.1326 -124.692 0)
(-19.1891 -114.658 0)
(-12.5942 -100.823 0)
(-5.66786 -83.6987 0)
(0.56996 -64.0773 0)
(5.5672 -43.7638 0)
(9.2539 -25.4483 0)
(15.6808 -9.52365 0)
(21.8638 9.86066 0)
(25.7718 27.0877 0)
(25.7922 41.0359 0)
(21.2723 53.1569 0)
(17.5823 63.9665 0)
(10.8183 73.2633 0)
(4.68451 81.2514 0)
(-0.961139 88.4927 0)
(-6.05279 94.5759 0)
(-9.75215 96.7208 0)
(-11.4834 93.9768 0)
(-11.3305 87.6145 0)
(-9.63006 78.296 0)
(-7.41167 66.7123 0)
(-5.33497 52.9005 0)
(-3.28372 37.7469 0)
(-1.31469 23.1748 0)
(0.978148 11.0738 0)
(4.87495 3.28993 0)
(4.66869 -17.269 0)
(7.6705 -30.3682 0)
(7.62146 -41.4223 0)
(6.25248 -50.5912 0)
(3.84036 -58.8802 0)
(3.21823 -65.8891 0)
(2.61034 -71.7867 0)
(1.37164 -76.227 0)
(-0.106584 -76.7548 0)
(-1.29185 -73.9564 0)
(-2.05483 -68.4086 0)
(-2.42834 -60.6756 0)
(-2.68626 -51.1458 0)
(-3.06944 -40.0367 0)
(-3.46055 -27.9345 0)
(-3.30885 -16.4744 0)
(-2.67918 -7.76182 0)
(-3.02729 -1.32923 0)
(-3.35495 15.3788 0)
(-3.23458 25.9487 0)
(-3.16826 35.5642 0)
(-2.9181 44.3134 0)
(-1.99241 51.9536 0)
(-1.36459 58.1082 0)
(-0.412051 62.1338 0)
(0.421912 62.677 0)
(1.0186 60.8581 0)
(1.37792 57.0979 0)
(1.51488 51.6039 0)
(1.5294 44.4147 0)
(1.20665 35.613 0)
(0.350674 25.7501 0)
(-0.620718 16.046 0)
(-1.16501 8.45929 0)
(-1.24977 4.17077 0)
(0.0737112 -9.53172 0)
(0.695512 -18.4711 0)
(0.886773 -26.4254 0)
(1.5361 -33.3785 0)
(2.11169 -39.2871 0)
(2.67879 -44.0696 0)
(3.16957 -47.5531 0)
(3.65571 -49.3845 0)
(4.3663 -48.8818 0)
(4.57889 -46.5822 0)
(4.26649 -42.4888 0)
(3.56989 -36.8695 0)
(2.43152 -30.0662 0)
(0.970915 -22.4432 0)
(-0.436567 -14.732 0)
(-1.27654 -7.8705 0)
(-1.83459 -2.97037 0)
(-3.08227 2.45334 0)
(-4.43845 11.265 0)
(-4.69693 18.2794 0)
(-4.50433 24.5924 0)
(-4.12143 30.0087 0)
(-3.49309 34.4229 0)
(-2.68807 37.7545 0)
(-1.77715 39.7058 0)
(-0.85779 39.5287 0)
(0.0303349 37.9664 0)
(0.817225 35.0927 0)
(1.35766 30.9224 0)
(1.51117 25.5886 0)
(1.28941 19.4604 0)
(0.796212 13.1414 0)
(0.102334 7.41639 0)
(-0.432773 3.46171 0)
(-0.612614 0.101536 0)
(-0.708651 -8.57362 0)
(-28.5329 144.418 0)
(-38.0266 162.89 0)
(-42.2429 171.16 0)
(-40.0303 167.825 0)
(-33.2875 156.643 0)
(-23.5514 139.317 0)
(-12.2515 117.07 0)
(-0.868093 90.8692 0)
(9.33857 63.2288 0)
(20.5948 36.5508 0)
(31.286 12.1886 0)
(39.9932 -7.42498 0)
(44.4231 -23.6348 0)
(43.8885 -38.1963 0)
(39.4948 -50.0784 0)
(31.6571 -61.2368 0)
(22.1932 -73.1154 0)
(12.476 -86.202 0)
(3.11055 -99.9817 0)
(-5.51737 -112.991 0)
(-12.8577 -123.396 0)
(-17.8187 -128.212 0)
(-19.8848 -125.568 0)
(-19.937 -117.695 0)
(-18.4562 -105.022 0)
(-16.1655 -88.4653 0)
(-13.7164 -68.8903 0)
(-10.9725 -47.7701 0)
(-7.10009 -28.0179 0)
(-3.21368 -13.4497 0)
(0.912018 5.02161 0)
(1.14601 27.2959 0)
(-0.353582 42.6993 0)
(-2.60489 55.8083 0)
(-3.8154 66.6814 0)
(-5.41907 76.4328 0)
(-7.89191 85.1982 0)
(-12.3538 92.6967 0)
(-14.9518 98.0344 0)
(-15.23 98.0344 0)
(-13.8922 93.422 0)
(-10.8993 84.9223 0)
(-6.79499 74.1075 0)
(-2.17407 62.3062 0)
(1.99698 49.7479 0)
(3.70272 36.1287 0)
(4.27526 23.2627 0)
(10.4644 10.8517 0)
(15.7528 -3.21427 0)
(22.7267 -18.4575 0)
(24.8124 -31.3029 0)
(21.9856 -41.4895 0)
(24.2391 -49.8643 0)
(20.6124 -57.3224 0)
(16.3939 -64.1178 0)
(11.8866 -69.8025 0)
(7.16272 -73.5972 0)
(2.78512 -73.9907 0)