/*--------------------------------*- C++ -*----------------------------------*\
| =========                 |                                                 |
| \\      /  F ield         | OpenFOAM: The Open Source CFD Toolbox           |
|  \\    /   O peration     | Version:  2206                                  |
|   \\  /    A nd           | Website:  www.openfoam.com                      |
|    \\/     M anipulation  |                                                 |
\*---------------------------------------------------------------------------*/
FoamFile
{
    version     2.0;
    format      ascii;
    arch        "LSB;label=32;scalar=64";
    class       volVectorField;
    location    "18.6999";
    object      ddt0(U);
}
// * * * * * * * * * * * * * * * * * * * * * * * * * * * * * * * * * * * * * //

dimensions      [0 1 -2 0 0 0 0];

internalField   nonuniform List<vector> 
1838
(
(-31.294 -69.8647 0)
(45.4536 -79.8083 0)
(93.8811 -77.7134 0)
(144.995 -54.6074 0)
(202.676 -16.165 0)
(248.041 23.4218 0)
(282.768 54.9606 0)
(307.626 88.5134 0)
(309.201 120.662 0)
(280.64 153.451 0)
(215.711 189.508 0)
(115.668 224.248 0)
(-0.0985743 248.448 0)
(-114.853 258.959 0)
(-214.549 237.711 0)
(-298.677 178.722 0)
(-371.393 97.421 0)
(-433.047 4.59816 0)
(-481.209 -100.323 0)
(-517.123 -224.156 0)
(-539.911 -350.58 0)
(-503.277 -417.795 0)
(-407.824 -403.013 0)
(-290.397 -337.478 0)
(-169.035 -255.526 0)
(-65.9315 -188.706 0)
(14.3597 -146.112 0)
(82.8217 -100.999 0)
(138.586 -57.5995 0)
(182.302 -11.4405 0)
(212.595 24.3931 0)
(231.527 52.1824 0)
(241.119 74.9982 0)
(238.931 92.6424 0)
(225.318 104.672 0)
(208.17 105.608 0)
(202.43 84.6898 0)
(219.042 34.1874 0)
(251.44 -34.1956 0)
(288.039 -87.9608 0)
(297.321 -96.0542 0)
(276.535 -59.0638 0)
(235.182 5.57091 0)
(177.697 88.5511 0)
(100.917 161.979 0)
(42.6145 216.252 0)
(-29.1059 248.022 0)
(-72.7007 250.284 0)
(-101.495 227.974 0)
(-120.868 194.915 0)
(-131.073 157.197 0)
(-134.309 119.558 0)
(-133.531 84.2991 0)
(-132.226 51.7018 0)
(-132.392 21.8055 0)
(-135.056 -5.0353 0)
(-143.062 -31.2838 0)
(-155.684 -60.1418 0)
(-172.314 -94.8634 0)
(-192.894 -138.272 0)
(-215.116 -187.539 0)
(-228.11 -228.791 0)
(-214.181 -240.418 0)
(-180.461 -226.393 0)
(-132.689 -193.949 0)
(-80.1289 -154.765 0)
(-33.9701 -120.016 0)
(10.7964 -87.2148 0)
(73.248 -34.1415 0)
(123.731 17.7113 0)
(168.413 55.061 0)
(197.116 73.9745 0)
(207.1 72.0205 0)
(204.051 54.2657 0)
(193.048 29.0817 0)
(175.967 4.00954 0)
(155.165 -14.6649 0)
(133.497 -22.3368 0)
(113.322 -17.4091 0)
(95.7614 -1.05478 0)
(80.2445 25.2258 0)
(62.4844 55.4849 0)
(45.354 84.6971 0)
(27.2233 108.89 0)
(7.85442 125.757 0)
(-11.8291 133.89 0)
(-30.2055 131.909 0)
(-46.3685 122.173 0)
(-59.9806 106.535 0)
(-70.6961 86.5349 0)
(-78.8361 63.782 0)
(-85.0843 39.6078 0)
(-89.5299 15.22 0)
(-91.5254 -8.44476 0)
(-92.1833 -30.6851 0)
(-91.9681 -50.9535 0)
(-91.9148 -69.288 0)
(-92.7998 -86.2015 0)
(-94.3614 -101.628 0)
(-94.1398 -113.509 0)
(-87.3919 -117.257 0)
(-75.0194 -114.037 0)
(18.0875 -82.4914 0)
(57.5137 -125.137 0)
(86.2715 -130.374 0)
(119.456 -107.402 0)
(164.546 -66.7721 0)
(203.398 -18.7776 0)
(228.691 29.7894 0)
(232.802 89.0435 0)
(208.179 156.477 0)
(155.951 225.201 0)
(83.3637 288.505 0)
(1.17139 333.038 0)
(-65.9062 354.6 0)
(-121.063 339.135 0)
(-164.185 291.773 0)
(-208.1 228.251 0)
(-258.106 149.42 0)
(-315.822 52.4849 0)
(-375.678 -62.4689 0)
(-429.459 -194.818 0)
(-472.837 -333.831 0)
(-498.238 -450.176 0)
(-465.373 -489.138 0)
(-381.835 -451.206 0)
(-275.799 -376.378 0)
(-167.674 -296.909 0)
(-73.1045 -226.15 0)
(0.0677408 -165.741 0)
(58.8466 -116.533 0)
(115.232 -57.9194 0)
(155.558 -7.50857 0)
(186.797 33.5236 0)
(208.099 66.0074 0)
(216.669 94.8765 0)
(216.623 113.139 0)
(219.653 107.003 0)
(240.094 66.8281 0)
(272.026 -1.55552 0)
(302.502 -65.2932 0)
(303.84 -88.2891 0)
(282.342 -67.7801 0)
(243.72 -14.0514 0)
(192.683 66.0924 0)
(119.102 153.013 0)
(53.9441 230.102 0)
(-13.8885 280.552 0)
(-62.5031 298.357 0)
(-94.9483 282.256 0)
(-116.292 248.777 0)
(-127.006 205.754 0)
(-128.396 159.765 0)
(-122.865 116.105 0)
(-113.117 77.8474 0)
(-102.073 46.0189 0)
(-93.383 19.7415 0)
(-88.8347 -2.76871 0)
(-91.3378 -23.0825 0)
(-101.667 -46.4917 0)
(-117.601 -77.1542 0)
(-137.076 -117.527 0)
(-158.451 -166.319 0)
(-178.456 -216.557 0)
(-187.528 -253.384 0)
(-173.922 -258.69 0)
(-143.978 -240.485 0)
(-102.519 -206.605 0)
(-56.1171 -167.781 0)
(-12.3323 -128.287 0)
(30.8031 -86.7462 0)
(78.7857 -32.5213 0)
(119.848 14.608 0)
(153.719 47.258 0)
(175.622 61.1922 0)
(182.801 56.2058 0)
(179.242 39.9633 0)
(167.933 21.1071 0)
(150.982 6.15235 0)
(131.2 -0.540995 0)
(110.947 2.97483 0)
(92.3216 17.7843 0)
(74.077 43.4436 0)
(55.3302 73.2549 0)
(38.1311 102.778 0)
(20.383 127.758 0)
(2.06848 145.325 0)
(-15.7721 152.729 0)
(-31.4697 148.374 0)
(-44.636 136.033 0)
(-54.7681 117.304 0)
(-61.7391 94.4057 0)
(-65.9287 69.4183 0)
(-68.7829 43.7608 0)
(-71.3754 17.8498 0)
(-71.7604 -7.68065 0)
(-70.9247 -31.2568 0)
(-69.5622 -51.9807 0)
(-68.5433 -69.8442 0)
(-68.5745 -85.6848 0)
(-69.7925 -100.456 0)
(-71.4661 -114.093 0)
(-70.7905 -123.535 0)
(-64.7875 -124.688 0)
(16.9752 -125.84 0)
(38.9182 -141.911 0)
(49.2724 -148.564 0)
(65.2744 -126.585 0)
(84.741 -87.538 0)
(103.307 -31.6385 0)
(110.934 38.3693 0)
(101.373 118.185 0)
(77.7996 205.871 0)
(43.1927 287.16 0)
(-5.96498 352.54 0)
(-37.766 386.693 0)
(-65.7873 395.285 0)
(-68.8158 363.144 0)
(-63.8259 317.152 0)
(-61.5819 259.029 0)
(-73.0407 192.151 0)
(-108.694 111.972 0)
(-163.497 2.2622 0)
(-238.328 -132.458 0)
(-316.554 -285.166 0)
(-379.543 -425.772 0)
(-415.533 -517.941 0)
(-392.112 -525.093 0)
(-327.313 -473.607 0)
(-241.784 -396.869 0)
(-155.117 -315.613 0)
(-77.5559 -239.566 0)
(-12.4047 -170.366 0)
(35.6155 -107.302 0)
(83.8262 -50.7095 0)
(124.917 -2.23383 0)
(157.909 46.4339 0)
(179.62 84.356 0)
(196.003 101.88 0)
(221.046 84.2537 0)
(255.629 32.4151 0)
(286.471 -28.9622 0)
(295.467 -68.2348 0)
(279.287 -68.9135 0)
(246.801 -32.5822 0)
(201.965 36.6659 0)
(134.668 131.004 0)
(62.95 224.998 0)
(0.596432 296.206 0)
(-52.6308 334.008 0)
(-90.1133 334.002 0)
(-113.46 305.822 0)
(-125.294 260.73 0)
(-126.008 207.105 0)
(-117.417 152.816 0)
(-102.742 103.799 0)
(-84.6467 63.2076 0)
(-66.2626 29.4354 0)
(-49.4739 7.51538 0)
(-37.5453 -5.21334 0)
(-34.3239 -18.2504 0)
(-42.653 -33.5186 0)
(-59.2454 -58.9315 0)
(-80.4388 -96.6568 0)
(-103.335 -145.244 0)
(-125.524 -198.751 0)
(-143.001 -246.021 0)
(-147.092 -271.98 0)
(-132.688 -268.146 0)
(-105.326 -245.946 0)
(-69.8712 -212.096 0)
(-33.3844 -170.678 0)
(0.042133 -124.057 0)
(37.6402 -76.6214 0)
(75.1726 -22.6437 0)
(107.757 17.8245 0)
(132.442 42.1815 0)
(147.497 50.2431 0)
(149.914 44.41 0)
(144.167 33.0203 0)
(131.99 22.8387 0)
(115.974 18.1928 0)
(98.5639 22.0935 0)
(81.1702 37.6196 0)
(61.8423 61.9812 0)
(44.3381 91.2974 0)
(27.5911 120.486 0)
(10.8743 145.576 0)
(-5.39721 162.838 0)
(-19.9161 168.314 0)
(-31.7426 161.598 0)
(-41.1455 146.361 0)
(-47.6508 124.366 0)
(-50.9597 98.3449 0)
(-51.0392 71.1331 0)
(-49.4179 44.8635 0)
(-49.438 18.7123 0)
(-47.887 -8.85337 0)
(-45.4214 -33.1668 0)
(-43.5149 -53.3352 0)
(-42.9439 -70.2938 0)
(-43.8142 -85.0468 0)
(-45.7472 -98.6959 0)
(-48.7306 -112.141 0)
(-51.6218 -124.115 0)
(-51.2032 -131.052 0)
(8.99337 -142.639 0)
(17.5354 -150.749 0)
(16.9745 -147.962 0)
(18.6181 -131.08 0)
(20.433 -94.1104 0)
(20.8305 -34.6357 0)
(24.5744 44.5242 0)
(19.8357 123.545 0)
(13.9744 226.052 0)
(-16.5665 320.842 0)
(-49.2281 385.125 0)
(-59.3767 413.65 0)
(-48.6514 390.93 0)
(-36.5702 355.232 0)
(-7.70545 308.855 0)
(23.7264 260.403 0)
(48.9564 209.652 0)
(65.7463 146.919 0)
(50.1009 67.2865 0)
(8.31001 -58.0265 0)
(-98.5023 -198.764 0)
(-196.388 -352.318 0)
(-277.705 -477.355 0)
(-319.677 -539.052 0)
(-309.633 -526.406 0)
(-266.087 -469.847 0)
(-204.851 -392.825 0)
(-140.079 -310.467 0)
(-80.1254 -230.243 0)
(-27.7066 -155.605 0)
(18.891 -94.6 0)
(53.1296 -41.7864 0)
(92.6236 4.98422 0)
(128.814 60.211 0)
(164.809 70.0884 0)
(204.258 46.3387 0)
(239.491 1.61964 0)
(260.043 -41.0921 0)
(255.447 -58.3631 0)
(233.487 -40.5939 0)
(196.901 11.1992 0)
(138.872 99.9152 0)
(71.5663 201.049 0)
(9.12722 290.074 0)
(-45.5499 350.902 0)
(-87.8121 375.385 0)
(-112.94 359.797 0)
(-125.794 319.251 0)
(-126.128 261.87 0)
(-115.637 197.689 0)
(-96.6982 135.687 0)
(-73.5289 83.0346 0)
(-49.5499 38.5843 0)
(-24.0818 13.0079 0)
(-1.6196 -12.0625 0)
(17.5315 -18.8815 0)
(23.8689 -18.2543 0)
(17.2286 -19.7005 0)
(-0.118346 -37.5612 0)
(-22.4126 -72.7097 0)
(-47.5273 -121.205 0)
(-72.4111 -176.855 0)
(-94.2899 -230.209 0)
(-108.938 -269.558 0)
(-109.205 -282.037 0)
(-96.1419 -270.466 0)
(-74.9031 -242.565 0)
(-49.1628 -202.585 0)
(-22.6649 -155.293 0)
(2.41223 -105.689 0)
(32.4213 -60.1172 0)
(61.3838 -11.542 0)
(86.7157 20.9205 0)
(104.708 37.9042 0)
(112.414 43.2542 0)
(110.702 39.8214 0)
(103.392 34.6213 0)
(91.7141 32.9982 0)
(77.4697 39.4642 0)
(60.4517 55.5992 0)
(43.1891 79.6277 0)
(27.1726 108.136 0)
(11.8487 136.675 0)
(-2.71576 161.153 0)
(-15.7125 177.184 0)
(-25.4106 179.531 0)
(-31.9733 170.416 0)
(-36.1097 152.42 0)
(-37.7817 127.384 0)
(-37.0114 98.2472 0)
(-33.6177 68.4135 0)
(-27.7164 41.0702 0)
(-24.642 16.5717 0)
(-20.4615 -11.035 0)
(-15.6789 -36.521 0)
(-13.9687 -55.0535 0)
(-15.3031 -69.2489 0)
(-19.1283 -82.3077 0)
(-23.3507 -95.3602 0)
(-27.857 -108.227 0)
(-32.4456 -120.673 0)
(-35.9583 -131.312 0)
(-10.8911 -149.189 0)
(-14.6905 -132.569 0)
(-16.7338 -96.4034 0)
(-14.7026 -38.4631 0)
(-12.1908 31.3942 0)
(-16.3971 127.334 0)
(-37.5153 245.842 0)
(-56.6241 336.012 0)
(-61.721 390.002 0)
(-55.6016 399.255 0)
(-40.5781 365.532 0)
(-5.32042 315.233 0)
(38.661 262.485 0)
(89.8902 215.029 0)
(137.667 173.625 0)
(172.939 124.129 0)
(181.457 84.0557 0)
(155.966 37.3388 0)
(117.281 -105.982 0)
(18.3268 -248.291 0)
(-105.08 -391.358 0)
(-191.716 -493.869 0)
(-233.848 -526.996 0)
(-235.55 -499.713 0)
(-212.481 -440.534 0)
(-175.298 -365.077 0)
(-130.921 -284.896 0)
(-85.0487 -207.357 0)
(-42.1283 -135.55 0)
(-3.82371 -74.6549 0)
(33.2053 -32.5045 0)
(67.689 11.269 0)
(121.142 25.472 0)
(166.466 7.4086 0)
(196.16 -23.8467 0)
(205.955 -45.8977 0)
(196.831 -43.8487 0)
(172.77 -9.3979 0)
(126.244 65.1578 0)
(65.0237 162.53 0)
(5.74423 262.189 0)
(-47.5687 344.06 0)
(-91.5059 395 0)
(-119.335 403.66 0)
(-130.8 374.38 0)
(-130.153 320.235 0)
(-116.763 250.476 0)
(-94.2542 177.207 0)
(-66.8569 109.317 0)
(-38.3981 53.9408 0)
(-9.41567 17.2215 0)
(22.3672 -23.6065 0)
(56.2021 -34.987 0)
(73.2026 -29.0238 0)
(76.2708 -16.7048 0)
(71.4603 -11.2597 0)
(58.5698 -19.2066 0)
(34.1627 -47.2115 0)
(6.73002 -94.5125 0)
(-20.5986 -151.973 0)
(-45.9832 -209.306 0)
(-66.9785 -256.063 0)
(-79.4451 -282.311 0)
(-79.7297 -279.921 0)
(-72.1653 -259.13 0)
(-58.7869 -223.892 0)
(-41.5675 -179.584 0)
(-22.4901 -130.821 0)
(-4.95399 -81.2411 0)
(16.3966 -35.8823 0)
(39.0582 -5.03148 0)
(59.8132 25.2867 0)
(71.3727 37.662 0)
(72.1112 41.5471 0)
(68.4562 42.399 0)
(60.7991 45.5103 0)
(48.2208 54.6152 0)
(33.6087 71.6731 0)
(18.8752 95.6386 0)
(4.59569 123.206 0)
(-8.83092 150.653 0)
(-20.7711 173.562 0)
(-29.3233 186.533 0)
(-32.72 184.715 0)
(-32.5815 172.944 0)
(-29.7296 152.61 0)
(-24.913 125.417 0)
(-18.9944 94.27 0)
(-12.4494 61.9891 0)
(-5.12049 32.9494 0)
(3.1057 12.5753 0)
(12.4129 -17.7589 0)
(12.9404 -38.8159 0)
(13.4802 -52.8262 0)
(8.8566 -65.7695 0)
(4.8906 -77.8155 0)
(-0.633043 -90.0883 0)
(-7.56822 -102.801 0)
(-13.8098 -115.615 0)
(-19.6463 -127.345 0)
(5.10617 -0.109644 0)
(5.20276 -0.0935153 0)
(5.28522 -0.0709836 0)
(5.3261 -0.0507987 0)
(5.40335 -0.031461 0)
(5.39122 -0.01294 0)
(5.39598 -0.00231351 0)
(5.40285 -0.00205544 0)
(5.41656 -0.00945432 0)
(5.44629 -0.0204215 0)
(5.49734 -0.0297055 0)
(5.56929 -0.0307638 0)
(5.64078 -0.0176557 0)
(5.70563 0.0104548 0)
(5.7417 0.0559104 0)
(5.72318 0.11988 0)
(5.62423 0.2009 0)
(5.41938 0.295783 0)
(5.08419 0.400077 0)
(4.60101 0.504727 0)
(3.95217 0.607657 0)
(3.12457 0.708778 0)
(2.11416 0.793008 0)
(0.928061 0.863417 0)
(-0.403822 0.915486 0)
(-1.9607 0.884792 0)
(-3.35897 0.74055 0)
(-4.69421 0.557795 0)
(-6.09277 0.424578 0)
(-7.54672 0.401593 0)
(-9.09863 0.450735 0)
(5.73678 -0.104116 0)
(5.76471 -0.0940037 0)
(5.75791 -0.0698231 0)
(5.71521 -0.0432641 0)
(5.64225 -0.0188878 0)
(5.55061 0.0011869 0)
(5.45508 0.00806805 0)
(5.36446 -0.00144599 0)
(5.28651 -0.0244736 0)
(5.22881 -0.0567833 0)
(5.19562 -0.0911308 0)
(5.18673 -0.118595 0)
(5.19578 -0.127934 0)
(5.21511 -0.112047 0)
(5.23461 -0.064631 0)
(5.24115 0.0191196 0)
(5.22028 0.140444 0)
(5.15886 0.298291 0)
(5.03998 0.490055 0)
(4.85246 0.71099 0)
(4.58651 0.953731 0)
(4.21196 1.21146 0)
(3.71272 1.48025 0)
(3.09941 1.75213 0)
(2.33168 2.01949 0)
(1.41959 2.26781 0)
(0.134871 2.48784 0)
(-1.53495 2.72069 0)
(-3.67489 3.02817 0)
(-6.40619 3.4533 0)
(-9.89076 4.05596 0)
(6.21347 -0.161759 0)
(6.2275 -0.0924092 0)
(6.19045 -0.0136421 0)
(6.10428 0.059642 0)
(5.97824 0.117529 0)
(5.82636 0.155079 0)
(5.66269 0.166693 0)
(5.49947 0.150365 0)
(5.34644 0.113197 0)
(5.21302 0.06169 0)
(5.10676 0.00912956 0)
(5.0326 -0.0349744 0)
(4.98976 -0.0461006 0)
(4.97368 -0.0419405 0)
(4.97908 0.00292043 0)
(4.99813 0.0882348 0)
(5.02216 0.215545 0)
(5.04389 0.385903 0)
(5.05534 0.607502 0)
(5.04867 0.845297 0)
(5.01313 1.13322 0)
(4.94116 1.55969 0)
(4.82486 1.86437 0)
(4.65209 2.20055 0)
(4.4088 2.56941 0)
(4.07744 2.95816 0)
(3.62449 3.39568 0)
(3.00862 3.93655 0)
(2.17381 4.65587 0)
(1.06357 5.64363 0)
(-0.399587 7.00079 0)
(6.32428 -0.220947 0)
(6.37874 -0.0809843 0)
(6.35002 0.0703527 0)
(6.24619 0.201149 0)
(6.08686 0.29302 0)
(5.89283 0.343325 0)
(5.68121 0.353798 0)
(5.47176 0.323318 0)
(5.27673 0.26018 0)
(5.10659 0.175515 0)
(4.96829 0.0868188 0)
(4.87459 0.00467075 0)
(4.83457 -0.066204 0)
(4.83657 -0.10474 0)
(4.8705 -0.0851718 0)
(4.92511 -0.00394949 0)
(4.9966 0.12938 0)
(5.08062 0.311915 0)
(5.17104 0.543806 0)
(5.25812 0.820628 0)
(5.33005 1.13463 0)
(5.40241 1.47529 0)
(5.47654 1.84024 0)
(5.53018 2.22942 0)
(5.56869 2.64519 0)
(5.60192 3.10248 0)
(5.62843 3.63109 0)
(5.64829 4.27984 0)
(5.65373 5.12651 0)
(5.65929 6.28965 0)
(5.61138 7.92334 0)
(6.37239 -0.352172 0)
(6.52872 -0.140415 0)
(6.59173 0.0935523 0)
(6.54532 0.308998 0)
(6.40253 0.476832 0)
(6.19553 0.584707 0)
(5.94434 0.622679 0)
(5.67666 0.593126 0)
(5.42924 0.540632 0)
(5.22734 0.406352 0)
(5.08958 0.275724 0)
(5.01627 0.0749281 0)
(4.99627 0.0104372 0)
(4.98518 -0.0510479 0)
(5.04701 -0.0721273 0)
(5.14897 -0.0366104 0)
(5.29304 0.062145 0)
(5.43346 0.223345 0)
(5.56977 0.442379 0)
(5.699 0.710147 0)
(5.81917 1.01995 0)
(5.9365 1.36728 0)
(6.0567 1.72794 0)
(6.18577 2.10404 0)
(6.32294 2.50454 0)
(6.50168 2.93093 0)
(6.7466 3.40857 0)
(7.09664 3.98445 0)
(7.62766 4.69917 0)
(8.41007 5.70924 0)
(9.46857 7.24882 0)
(6.59117 -0.565022 0)
(6.71709 -0.23287 0)
(6.71728 0.104765 0)
(6.60163 0.406238 0)
(6.40095 0.622051 0)
(6.16067 0.770939 0)
(5.89096 0.84805 0)
(5.6097 0.795334 0)
(5.36009 0.668941 0)
(5.18519 0.460868 0)
(5.05535 0.286564 0)
(4.99039 0.0901214 0)
(4.99551 -0.075441 0)
(5.07667 -0.189549 0)
(5.20671 -0.248276 0)
(5.36349 -0.238825 0)
(5.53434 -0.146567 0)
(5.71374 0.0269276 0)
(5.89267 0.268664 0)
(6.06257 0.564088 0)
(6.21956 0.899469 0)
(6.36467 1.26031 0)
(6.51217 1.62797 0)
(6.63713 1.99287 0)
(6.83684 2.34928 0)
(7.09728 2.69182 0)
(7.47251 3.02651 0)
(8.05649 3.38485 0)
(9.04983 3.82982 0)
(10.0141 4.42064 0)
(11.8334 5.43644 0)
(6.87462 -0.869165 0)
(7.04637 -0.344267 0)
(7.05101 0.188112 0)
(6.91985 0.642066 0)
(6.69848 0.979959 0)
(6.43967 1.18873 0)
(6.17561 1.26311 0)
(5.91847 1.2079 0)
(5.68387 1.04131 0)
(5.49127 0.785969 0)
(5.36088 0.516676 0)
(5.30571 0.212586 0)
(5.32778 -0.0611259 0)
(5.42229 -0.251089 0)
(5.57127 -0.364039 0)
(5.75587 -0.395045 0)
(5.96021 -0.333924 0)
(6.17388 -0.183143 0)
(6.38831 0.0459659 0)
(6.59679 0.337746 0)
(6.79696 0.674502 0)
(6.99015 1.03722 0)
(7.18804 1.40734 0)
(7.38085 1.76086 0)
(7.60129 2.07622 0)
(7.87921 2.33524 0)
(8.26941 2.5107 0)
(8.86067 2.58242 0)
(9.87623 2.58791 0)
(11.5571 2.60802 0)
(14.0345 2.82697 0)
(7.14031 -1.11127 0)
(7.40558 -0.474868 0)
(7.5705 0.126514 0)
(7.62414 0.63454 0)
(7.60579 0.98174 0)
(7.53694 1.18232 0)
(7.4296 1.27415 0)
(7.29775 1.23573 0)
(7.15772 1.06348 0)
(7.02224 0.779984 0)
(6.8922 0.443764 0)
(6.78999 0.0999989 0)
(6.7132 -0.202628 0)
(6.66082 -0.434235 0)
(6.6397 -0.57353 0)
(6.65021 -0.610356 0)
(6.69065 -0.542153 0)
(6.76252 -0.376922 0)
(6.8678 -0.131548 0)
(7.00858 0.173458 0)
(7.18821 0.516291 0)
(7.41124 0.875386 0)
(7.68382 1.22992 0)
(8.01296 1.55585 0)
(8.40615 1.82427 0)
(8.87799 2.00226 0)
(9.4643 2.03352 0)
(10.2434 1.82967 0)
(11.413 1.27307 0)
(13.3838 0.197905 0)
(16.9215 -1.21806 0)
(5.65798 -1.73358 0)
(5.46826 -0.786365 0)
(5.43107 -0.00825538 0)
(5.53132 0.660941 0)
(5.73723 1.17915 0)
(6.01259 1.50384 0)
(6.32029 1.64642 0)
(6.6276 1.62338 0)
(6.90932 1.4549 0)
(7.14263 1.18 0)
(7.29951 0.844503 0)
(7.39185 0.479883 0)
(7.41736 0.12711 0)
(7.37831 -0.169375 0)
(7.31236 -0.387446 0)
(7.22579 -0.515392 0)
(7.14329 -0.543162 0)
(7.08951 -0.472522 0)
(7.08711 -0.316761 0)
(7.15694 -0.0950443 0)
(7.31703 0.170823 0)
(7.58041 0.457663 0)
(7.95506 0.742489 0)
(8.44191 1.00042 0)
(9.03478 1.20271 0)
(9.71619 1.31053 0)
(10.4651 1.25573 0)
(11.2518 0.912339 0)
(12.1766 0.00783408 0)
(13.435 -2.03383 0)
(16.9768 -5.96011 0)
(3.14826 0.107269 0)
(2.41966 0.320605 0)
(2.24163 0.469136 0)
(2.5287 0.545897 0)
(3.18147 0.559261 0)
(4.08807 0.5229 0)
(5.10572 0.446817 0)
(6.21045 0.326871 0)
(7.16265 0.175435 0)
(7.95661 0.0171074 0)
(8.51127 -0.134485 0)
(8.81573 -0.266301 0)
(8.85431 -0.354565 0)
(8.6855 -0.386192 0)
(8.36772 -0.367238 0)
(7.94394 -0.303523 0)
(7.5063 -0.201091 0)
(7.12298 -0.0727633 0)
(6.85041 0.0678848 0)
(6.73371 0.209417 0)
(6.80137 0.342728 0)
(7.06583 0.460674 0)
(7.52351 0.558727 0)
(8.15519 0.631144 0)
(8.92462 0.669872 0)
(9.77022 0.669877 0)
(10.6119 0.572241 0)
(11.1629 0.313116 0)
(11.4555 -0.30479 0)
(9.35824 -2.10062 0)
(10.299 -5.03089 0)
(-10.8708 0.54319 0)
(-12.9603 0.66802 0)
(-15.4582 0.892961 0)
(-18.2934 1.60233 0)
(-21.6844 3.6407 0)
(-29.8213 6.18747 0)
(-38.6273 9.50752 0)
(-49.1192 13.8021 0)
(-66.8223 12.7927 0)
(-77.5549 7.28274 0)
(-86.5782 2.75883 0)
(-91.1826 -2.46078 0)
(-91.5126 -6.19127 0)
(-93.347 -7.88448 0)
(-93.8107 -8.67539 0)
(-85.2839 -14.0307 0)
(-56.3213 -20.1299 0)
(-11.199 -26.5401 0)
(48.9354 -35.3994 0)
(110.322 -33.5254 0)
(166.476 -25.4461 0)
(203.372 -5.60612 0)
(197.432 10.4041 0)
(179.616 19.1278 0)
(142.323 25.7822 0)
(91.8001 29.9262 0)
(40.9976 32.1671 0)
(-4.12756 26.0952 0)
(-44.6105 18.0267 0)
(-72.021 10.0882 0)
(-86.7288 2.89234 0)
(-87.488 -2.54352 0)
(-81.7413 -6.10914 0)
(-69.5199 -8.07581 0)
(-53.7084 -8.82714 0)
(-35.9619 -8.87556 0)
(-18.5462 -8.53501 0)
(-3.80333 -7.95994 0)
(10.8776 -6.00995 0)
(21.8923 -5.23744 0)
(27.6051 -2.51586 0)
(30.3091 -0.0254899 0)
(28.8335 2.13855 0)
(23.2102 4.10048 0)
(13.7712 5.72601 0)
(1.40348 6.90388 0)
(-12.1233 7.22223 0)
(-25.2717 6.85117 0)
(-37.2972 5.32381 0)
(-45.7207 3.27546 0)
(-49.989 1.03991 0)
(-50.0661 -1.54222 0)
(-45.0976 -3.9398 0)
(-35.5006 -5.96121 0)
(-22.3764 -7.31472 0)
(-7.69717 -8.21895 0)
(6.89333 -7.54939 0)
(20.4171 -6.08886 0)
(30.1372 -3.73455 0)
(34.0355 -0.875573 0)
(33.7934 1.28562 0)
(29.8177 2.83028 0)
(23.3097 3.50791 0)
(16.1882 3.64716 0)
(9.76317 3.05192 0)
(4.52444 2.24098 0)
(0.844602 1.43999 0)
(-1.32916 0.697801 0)
(-2.11491 0.0753745 0)
(-1.71945 -0.457913 0)
(-0.433716 -0.840264 0)
(1.45117 -1.10008 0)
(3.49512 -1.06037 0)
(5.45353 -0.892332 0)
(6.96141 -0.610562 0)
(7.83485 -0.262552 0)
(8.00056 0.0800635 0)
(7.5425 0.344714 0)
(6.7716 0.526497 0)
(5.96999 0.537428 0)
(5.0795 0.497204 0)
(4.10623 0.519195 0)
(2.98778 0.62831 0)
(1.58783 0.799547 0)
(-0.176963 0.989075 0)
(-2.31641 1.14607 0)
(-4.69656 1.2345 0)
(-7.18487 1.24386 0)
(-9.62812 1.16931 0)
(-11.8301 1.01171 0)
(-13.6282 0.76852 0)
(-14.9109 0.44799 0)
(-15.5089 0.0764569 0)
(-15.3587 -0.304522 0)
(-14.4667 -0.666548 0)
(-12.8642 -0.982655 0)
(-10.6802 -1.22509 0)
(-8.0957 -1.38444 0)
(-5.24696 -1.44824 0)
(-2.34642 -1.41564 0)
(0.420178 -1.30991 0)
(2.762 -1.18278 0)
(-14.3879 4.87465 0)
(-20.195 5.91746 0)
(-27.5287 7.14471 0)
(-36.6245 8.57803 0)
(-47.0561 10.032 0)
(-57.7811 11.1093 0)
(-69.9814 11.872 0)
(-79.6393 12.1803 0)
(-77.1206 12.1479 0)
(-71.7006 7.67461 0)
(-61.661 1.77529 0)
(-50.3379 0.881596 0)
(-48.1858 7.54524 0)
(-51.2398 15.1 0)
(-49.79 4.32502 0)
(-45.831 -22.9814 0)
(-38.4802 -74.6098 0)
(-16.7609 -108.729 0)
(42.6351 -102.158 0)
(116.341 -82.1796 0)
(166.476 -49.8458 0)
(185.834 -23.8288 0)
(191.877 9.21997 0)
(169.444 42.6855 0)
(126.824 68.6123 0)
(73.0204 81.436 0)
(19.0687 79.7272 0)
(-24.6887 67.9019 0)
(-58.2435 48.2569 0)
(-79.1363 27.8777 0)
(-88.6274 9.54866 0)
(-88.7871 -5.30838 0)
(-80.8804 -16.8266 0)
(-66.9382 -23.5362 0)
(-50.2726 -26.0555 0)
(-32.7308 -25.8946 0)
(-15.869 -24.327 0)
(-0.00309355 -21.9768 0)
(14.0786 -17.1902 0)
(24.0597 -13.1894 0)
(29.9087 -7.41158 0)
(32.0544 -1.08861 0)
(29.8875 5.53338 0)
(23.3529 11.7554 0)
(12.7929 17.0761 0)
(-0.931595 20.6489 0)
(-15.0614 21.8228 0)
(-27.4676 19.4801 0)
(-38.3695 14.7656 0)
(-46.1505 8.74382 0)
(-50.526 2.45682 0)
(-50.2649 -3.87499 0)
(-45.2048 -10.5616 0)
(-35.5525 -16.7239 0)
(-22.4423 -21.2188 0)
(-6.65706 -22.6453 0)
(9.3972 -20.9165 0)
(22.6066 -16.3125 0)
(31.6431 -10.3692 0)
(35.8265 -3.37464 0)
(34.5975 3.75384 0)
(29.2742 8.57435 0)
(22.0634 10.1998 0)
(15.1581 10.0943 0)
(9.12162 8.46427 0)
(4.41009 6.32113 0)
(1.0341 4.24031 0)
(-1.07563 2.13262 0)
(-1.99664 0.307663 0)
(-1.83532 -1.17649 0)
(-0.806999 -2.27085 0)
(0.905918 -2.91686 0)
(2.88192 -2.98476 0)
(4.69478 -2.55033 0)
(6.13164 -1.79217 0)
(6.95947 -0.789278 0)
(7.08414 0.224661 0)
(6.6491 0.867281 0)
(5.91968 1.26345 0)
(5.1014 1.30628 0)
(4.37085 1.28163 0)
(3.6381 1.41443 0)
(2.69636 1.77977 0)
(1.38516 2.34217 0)
(-0.37755 2.95762 0)
(-2.55621 3.45633 0)
(-5.01782 3.72086 0)
(-7.56187 3.73198 0)
(-10.0033 3.47595 0)
(-12.1616 2.96234 0)
(-13.8844 2.21563 0)
(-15.0048 1.24207 0)
(-15.3902 0.126499 0)
(-14.9976 -1.00597 0)
(-13.8507 -2.0706 0)
(-12.0484 -3.00393 0)
(-9.68961 -3.73404 0)
(-6.93115 -4.21216 0)
(-3.97183 -4.39765 0)
(-1.03519 -4.27453 0)
(1.65271 -3.87873 0)
(4.00786 -3.30769 0)
(-2.39181 8.82849 0)
(-5.13393 11.181 0)
(-8.86257 14.0173 0)
(-13.7681 17.1656 0)
(-19.8339 20.3428 0)
(-26.7579 23.0494 0)
(-33.9401 24.4413 0)
(-40.9534 23.0398 0)
(-47.4266 17.1424 0)
(-53.6094 7.22476 0)
(-56.8547 -3.78354 0)
(-56.1513 -13.0763 0)
(-48.907 -19.7979 0)
(-26.5984 -23.7542 0)
(17.4892 -19.6474 0)
(76.5864 -12.3417 0)
(92.0868 -31.6595 0)
(78.7904 -83.9023 0)
(69.1225 -150.539 0)
(76.9929 -147.863 0)
(111.394 -98.6508 0)
(137.151 -37.6947 0)
(137.191 20.949 0)
(119.594 77.0011 0)
(87.9337 118.431 0)
(47.4021 137.948 0)
(2.30078 136.442 0)
(-34.9716 107.913 0)
(-63.6631 73.1262 0)
(-78.7175 37.7826 0)
(-84.2901 6.81189 0)
(-80.7366 -13.937 0)
(-68.5118 -28.3962 0)
(-52.0239 -36.2513 0)
(-36.6257 -40.7002 0)
(-22.4906 -42.7148 0)
(-9.94711 -41.7513 0)
(2.93997 -36.2369 0)
(13.8975 -28.4721 0)
(21.521 -19.5769 0)
(25.7934 -9.73891 0)
(26.9306 -0.132927 0)
(24.7736 10.6972 0)
(19.0665 20.4089 0)
(10.448 28.3655 0)
(-0.289767 33.7373 0)
(-12.7633 35.2634 0)
(-22.8546 30.8276 0)
(-30.3144 23.0586 0)
(-35.4449 13.298 0)
(-38.9285 2.66461 0)
(-41.2491 -8.2893 0)
(-41.0186 -19.53 0)
(-35.7616 -28.6083 0)
(-24.6051 -34.2287 0)
(-11.0611 -37.1741 0)
(2.59977 -34.9663 0)
(14.8193 -27.5814 0)
(23.7359 -16.4811 0)
(28.5006 -4.40001 0)
(29.5393 6.54014 0)
(26.285 15.0099 0)
(21.6994 18.3431 0)
(16.244 16.7785 0)
(10.8429 13.6697 0)
(6.15747 9.7348 0)
(2.40382 6.29516 0)
(-0.23811 3.83458 0)
(-1.77182 1.40114 0)
(-2.36944 -1.53794 0)
(-2.05438 -3.79099 0)
(-0.968801 -4.86277 0)
(0.600842 -4.82481 0)
(2.46952 -4.11801 0)
(4.34901 -2.80429 0)
(5.72186 -1.25985 0)
(6.31988 0.53631 0)
(6.34161 1.84181 0)
(5.87915 2.10986 0)
(5.35254 1.90897 0)
(4.95586 1.78605 0)
(4.53715 2.02255 0)
(3.81898 2.77283 0)
(2.58695 3.89061 0)
(0.739542 5.10108 0)
(-1.66553 6.03541 0)
(-4.35568 6.48577 0)
(-7.07116 6.41965 0)
(-9.60296 5.85915 0)
(-11.7784 4.88922 0)
(-13.4758 3.5725 0)
(-14.5401 1.86199 0)
(-14.8371 -0.10409 0)
(-14.3503 -2.06038 0)
(-13.1607 -3.84102 0)
(-11.3695 -5.36792 0)
(-9.05452 -6.52386 0)
(-6.36429 -7.21497 0)
(-3.47849 -7.40013 0)
(-0.616927 -7.04791 0)
(1.99156 -6.24033 0)
(4.16691 -5.10833 0)
(5.42476 10.1895 0)
(4.88443 13.2653 0)
(3.63907 17.0859 0)
(1.50999 21.1661 0)
(-1.73253 25.3845 0)
(-6.53081 29.1157 0)
(-12.9706 30.8725 0)
(-21.1124 29.5168 0)
(-30.4284 24.1531 0)
(-40.2764 13.7157 0)
(-49.1612 0.928622 0)
(-56.774 -10.6114 0)
(-60.6662 -21.6747 0)
(-61.3909 -36.7961 0)
(-57.1733 -64.3374 0)
(-38.3702 -91.1778 0)
(3.95384 -86.9779 0)
(68.5164 -92.6736 0)
(100.568 -113.745 0)
(79.8189 -129.666 0)
(64.2039 -111.101 0)
(64.1885 -57.3687 0)
(66.7961 14.4212 0)
(65.2635 92.6926 0)
(58.0257 156.756 0)
(44.1949 182.714 0)
(9.99519 175.317 0)
(-29.0249 141.676 0)
(-48.4983 94.1611 0)
(-61.1314 48.6219 0)
(-68.7116 12.1027 0)
(-67.6311 -22.4657 0)
(-61.923 -52.5897 0)
(-48.1748 -61.7132 0)
(-28.0125 -59.3408 0)
(-10.3425 -53.9019 0)
(1.31963 -48.7872 0)
(9.19731 -42.0727 0)
(12.8952 -33.8274 0)
(14.5399 -24.3052 0)
(14.8616 -13.4384 0)
(14.7825 -1.45189 0)
(13.0371 12.5881 0)
(8.02109 25.38 0)
(1.49558 35.9384 0)
(-5.48509 44.2248 0)
(-13.0409 45.4347 0)
(-14.9251 38.0297 0)
(-11.8712 28.7075 0)
(-7.2327 19.4045 0)
(-5.48096 10.112 0)
(-6.40135 2.55584 0)
(-11.0356 -15.0257 0)
(-19.9722 -36.9134 0)
(-25.8521 -53.6574 0)
(-23.6002 -57.2077 0)
(-14.7916 -49.4645 0)
(-4.26383 -37.207 0)
(4.91362 -24.0998 0)
(14.0495 -11.2842 0)
(22.6252 11.0232 0)
(28.6955 21.1719 0)
(27.798 23.3698 0)
(22.6239 22.0036 0)
(17.7016 18.6114 0)
(12.4623 14.5725 0)
(6.11182 11.4955 0)
(-0.146871 4.98703 0)
(-5.92262 0.276957 0)
(-8.45528 -1.51616 0)
(-8.19347 -2.54772 0)
(-6.47859 -4.5516 0)
(-4.17763 -6.41434 0)
(-1.88532 -6.63525 0)
(0.9299 -5.65435 0)
(3.89672 -2.83598 0)
(6.24013 -0.0479875 0)
(7.306 1.74008 0)
(7.08871 2.33912 0)
(7.19658 2.43123 0)
(7.58566 2.40533 0)
(7.62211 2.89014 0)
(7.0189 3.92597 0)
(5.42092 5.57937 0)
(2.70553 7.16436 0)
(-0.865693 8.34085 0)
(-4.70675 8.77839 0)
(-8.31901 8.67289 0)
(-11.3214 7.94905 0)
(-13.4985 6.8137 0)
(-14.984 5.30796 0)
(-15.5255 3.05591 0)
(-15.1799 0.38004 0)
(-14.0026 -2.24756 0)
(-12.264 -4.64105 0)
(-10.1089 -6.80098 0)
(-7.58447 -8.5424 0)
(-4.84647 -9.75891 0)
(-2.10227 -10.2956 0)
(0.514958 -10.0636 0)
(2.7809 -9.02594 0)
(4.61793 -7.44074 0)
(10.8547 9.53505 0)
(11.9397 12.8732 0)
(13.1591 17.522 0)
(13.4121 23.1098 0)
(9.11301 28.7769 0)
(5.48485 33.9776 0)
(-1.1375 37.6048 0)
(-10.2537 38.6216 0)
(-20.5608 35.8962 0)
(-33.9638 26.7489 0)
(-53.6834 16.6461 0)
(-71.4557 2.28427 0)
(-82.5948 -15.7876 0)
(-90.135 -35.409 0)
(-96.7742 -61.0946 0)
(-101.64 -90.3131 0)
(-101.64 -120.001 0)
(-92.072 -140.267 0)
(-59.9785 -151.875 0)
(-29.9728 -150.04 0)
(-17.6734 -98.8307 0)
(-21.8431 -57.7114 0)
(-19.5728 -0.125123 0)
(-9.20685 75.9973 0)
(6.98078 140.057 0)
(29.1431 185.415 0)
(50.7973 192.93 0)
(51.8887 162.495 0)
(46.1821 118.118 0)
(40.8042 58.4762 0)
(25.2667 15.0542 0)
(13.1182 -11.3701 0)
(0.59908 -48.3452 0)
(-17.7013 -67.9926 0)
(-28.7133 -77.665 0)
(-30.4539 -75.6794 0)
(-22.8175 -65.7948 0)
(-10.5262 -54.4707 0)
(-0.537249 -41.0076 0)
(3.71724 -25.5165 0)
(3.19887 -8.78813 0)
(-0.552835 -0.490837 0)
(-4.94531 20.378 0)
(-14.1838 34.1255 0)
(-24.702 44.3476 0)
(-36.2683 49.1237 0)
(-41.5097 43.7355 0)
(-38.2952 29.1349 0)
(-30.6529 14.3854 0)
(-20.0094 1.94737 0)
(-10.7366 -3.52781 0)
(2.16922 -7.46235 0)
(20.7504 -6.48067 0)
(32.1209 -7.28276 0)
(26.8357 -16.4976 0)
(9.21113 -36.3627 0)
(-9.28413 -56.1596 0)
(-15.2078 -55.6663 0)
(-9.51522 -43.3458 0)
(1.01423 -28.2468 0)
(11.7259 -17.238 0)
(31.5763 11.2335 0)
(47.2713 27.0886 0)
(51.3121 31.0011 0)
(47.2452 29.0137 0)
(38.3625 24.3619 0)
(24.9634 20.3925 0)
(11.7978 18.3676 0)
(-5.52456 14.7803 0)
(-21.0348 0.262627 0)
(-32.2488 -10.1161 0)
(-34.812 -12.7664 0)
(-30.7868 -11.6265 0)
(-22.1714 -9.7697 0)
(-12.8083 -8.6289 0)
(-4.99575 -7.83037 0)
(1.88933 -2.55704 0)
(9.31529 2.23948 0)
(13.5686 3.49026 0)
(15.4067 1.93508 0)
(16.5729 1.48263 0)
(16.9417 2.47054 0)
(15.8369 4.90337 0)
(12.9937 8.06041 0)
(8.51974 11.8354 0)
(2.80167 14.2047 0)
(-4.12759 14.7945 0)
(-10.8511 13.953 0)
(-16.5918 12.1226 0)
(-20.9141 9.45702 0)
(-23.5029 6.15492 0)
(-24.2178 2.12388 0)
(-23.1217 -2.05496 0)
(-20.5278 -5.53006 0)
(-17.1628 -8.25267 0)
(-13.3303 -10.8162 0)
(-9.11658 -12.6364 0)
(-4.86303 -13.5845 0)
(-1.06596 -13.6173 0)
(2.13155 -12.4781 0)
(4.61909 -10.5203 0)
(6.60137 -8.13228 0)
(14.4693 7.47674 0)
(17.5664 10.9381 0)
(20.3394 16.6236 0)
(21.6958 24.5971 0)
(20.518 33.3504 0)
(16.353 40.8912 0)
(8.60248 46.6722 0)
(-2.4764 49.6379 0)
(-15.8336 49.8327 0)
(-34.077 45.3152 0)
(-55.9882 34.8894 0)
(-78.2408 18.0615 0)
(-96.7446 -2.85339 0)
(-117.802 -21.8426 0)
(-131.685 -51.2012 0)
(-146.675 -83.2714 0)
(-157.035 -112.11 0)
(-163.63 -141.071 0)
(-167.507 -176.182 0)
(-152.364 -167.098 0)
(-124.841 -115.95 0)
(-98.9401 -56.3047 0)
(-74.7959 -30.4669 0)
(-35.9517 41.6173 0)
(16.6342 108.952 0)
(71.3575 150.411 0)
(120.395 164.933 0)
(162.132 155.334 0)
(181.498 121.614 0)
(177.444 80.4366 0)
(158.527 41.7983 0)
(135.515 7.30352 0)
(107.51 -19.8285 0)
(75.4019 -36.8318 0)
(46.1339 -47.8308 0)
(20.0945 -59.0855 0)
(-4.02698 -65.8693 0)
(-19.2151 -61.2086 0)
(-24.253 -47.14 0)
(-23.0426 -28.8808 0)
(-22.4029 -10.7201 0)
(-19.2745 -3.19254 0)
(-19.1296 22.0493 0)
(-20.1243 41.7525 0)
(-25.5043 54.9732 0)
(-29.4114 59.63 0)
(-29.7805 48.8922 0)
(-36.0584 34.0588 0)
(-48.5251 21.7931 0)
(-67.819 10.297 0)
(-89.0113 -0.736777 0)
(-109.393 -20.2173 0)
(-120.578 -38.4702 0)
(-122.315 -52.2243 0)
(-103.502 -51.8891 0)
(-64.3457 -41.2354 0)
(-26.6718 -35.7838 0)
(-0.773318 -35.3746 0)
(18.0352 -36.7677 0)
(32.1581 -29.8492 0)
(41.9372 -18.596 0)