/*--------------------------------*- C++ -*----------------------------------*\
| =========                 |                                                 |
| \\      /  F ield         | OpenFOAM: The Open Source CFD Toolbox           |
|  \\    /   O peration     | Version:  2206                                  |
|   \\  /    A nd           | Website:  www.openfoam.com                      |
|    \\/     M anipulation  |                                                 |
\*---------------------------------------------------------------------------*/
FoamFile
{
    version     2.0;
    format      ascii;
    arch        "LSB;label=32;scalar=64";
    class       volVectorField;
    location    "19.1001";
    object      U;
}
// * * * * * * * * * * * * * * * * * * * * * * * * * * * * * * * * * * * * * //

dimensions      [0 1 -1 0 0 0 0];

internalField   nonuniform List<vector> 
1848
(
(1.47765 0.000552547 0)
(1.47788 0.00164633 0)
(1.47842 0.00269956 0)
(1.47923 0.00368323 0)
(1.48026 0.00458021 0)
(1.48149 0.00538577 0)
(1.48287 0.00610247 0)
(1.4844 0.00673547 0)
(1.48605 0.00729089 0)
(1.4878 0.00777587 0)
(1.48964 0.00819829 0)
(1.49155 0.00856603 0)
(1.49353 0.00888635 0)
(1.49556 0.00916566 0)
(1.49765 0.00940947 0)
(1.49977 0.0096224 0)
(1.50193 0.00980832 0)
(1.50413 0.00997043 0)
(1.50636 0.0101114 0)
(1.50861 0.0102333 0)
(1.51088 0.0103379 0)
(1.51317 0.0104265 0)
(1.51548 0.0105 0)
(1.5178 0.0105592 0)
(1.52014 0.0106044 0)
(1.52248 0.0106361 0)
(1.52483 0.0106542 0)
(1.52718 0.0106588 0)
(1.52953 0.0106499 0)
(1.53187 0.0106273 0)
(1.53421 0.0105908 0)
(1.53654 0.0105401 0)
(1.53886 0.0104751 0)
(1.54117 0.0103957 0)
(1.54345 0.0103018 0)
(1.54571 0.0101936 0)
(1.54795 0.0100714 0)
(1.55016 0.00993548 0)
(1.55234 0.00978641 0)
(1.55448 0.00962469 0)
(1.55659 0.00945103 0)
(1.55865 0.00926612 0)
(1.56067 0.00907082 0)
(1.56265 0.00886591 0)
(1.56458 0.00865229 0)
(1.56646 0.00843075 0)
(1.5683 0.00820215 0)
(1.57008 0.00796733 0)
(1.57181 0.0077271 0)
(1.57348 0.00748224 0)
(1.5751 0.00723331 0)
(1.57667 0.00698066 0)
(1.57818 0.00672435 0)
(1.57964 0.00646407 0)
(1.58103 0.00619959 0)
(1.58238 0.00592994 0)
(1.58367 0.00565448 0)
(1.58489 0.0053714 0)
(1.58606 0.00507942 0)
(1.58717 0.0047758 0)
(1.58822 0.00445828 0)
(1.5892 0.00412329 0)
(1.59012 0.00376671 0)
(1.59096 0.00338464 0)
(1.59173 0.00297005 0)
(1.59242 0.0025189 0)
(1.59302 0.00202131 0)
(1.59352 0.00147264 0)
(1.59391 0.000861318 0)
(1.59419 0.000174417 0)
(1.59433 -0.000600833 0)
(1.59432 -0.00148137 0)
(1.59414 -0.00248628 0)
(1.59377 -0.00363765 0)
(1.59318 -0.0049619 0)
(1.59234 -0.00649066 0)
(1.59121 -0.00826191 0)
(1.58975 -0.0103214 0)
(1.58791 -0.0127243 0)
(1.58563 -0.0155375 0)
(1.58284 -0.0188426 0)
(1.57947 -0.0227397 0)
(1.5754 -0.0273519 0)
(1.57054 -0.0328319 0)
(1.56475 -0.0393695 0)
(1.55787 -0.0472023 0)
(1.54972 -0.0566295 0)
(1.54008 -0.0680308 0)
(1.52869 -0.0818912 0)
(1.51524 -0.0988359 0)
(1.49938 -0.119675 0)
(1.48068 -0.145469 0)
(1.45862 -0.177617 0)
(1.43257 -0.218002 0)
(1.40175 -0.26914 0)
(1.3651 -0.334674 0)
(1.32115 -0.419276 0)
(1.26662 -0.531453 0)
(1.19883 -0.679349 0)
(1.08971 -0.897308 0)
(0.980231 -1.19001 0)
(0.333713 -1.98864 0)
(1.47765 0.000416287 0)
(1.47786 0.00124118 0)
(1.47834 0.00203859 0)
(1.47909 0.00278848 0)
(1.48005 0.00347807 0)
(1.48119 0.00410237 0)
(1.4825 0.00466147 0)
(1.48396 0.00515794 0)
(1.48554 0.00559567 0)
(1.48723 0.00597949 0)
(1.48901 0.00631492 0)
(1.49088 0.00660762 0)
(1.49281 0.00686296 0)
(1.49481 0.0070858 0)
(1.49686 0.00728041 0)
(1.49896 0.00745042 0)
(1.50109 0.00759891 0)
(1.50327 0.00772844 0)
(1.50547 0.0078411 0)
(1.5077 0.00793862 0)
(1.50996 0.00802232 0)
(1.51224 0.00809327 0)
(1.51453 0.00815225 0)
(1.51684 0.00819982 0)
(1.51916 0.00823639 0)
(1.52149 0.00826217 0)
(1.52382 0.00827729 0)
(1.52615 0.00828178 0)
(1.52849 0.00827555 0)
(1.53082 0.00825853 0)
(1.53315 0.00823062 0)
(1.53546 0.00819163 0)
(1.53777 0.00814144 0)
(1.54006 0.00807999 0)
(1.54232 0.00800732 0)
(1.54457 0.00792353 0)
(1.5468 0.00782887 0)
(1.54899 0.00772359 0)
(1.55115 0.0076081 0)
(1.55328 0.00748278 0)
(1.55538 0.00734821 0)
(1.55743 0.00720486 0)
(1.55944 0.00705346 0)
(1.56141 0.00689451 0)
(1.56333 0.00672882 0)
(1.5652 0.00655682 0)
(1.56703 0.00637939 0)
(1.5688 0.0061969 0)
(1.57052 0.00601023 0)
(1.57219 0.0058196 0)
(1.57381 0.00562572 0)
(1.57537 0.00542855 0)
(1.57687 0.0052284 0)
(1.57833 0.00502478 0)
(1.57972 0.00481767 0)
(1.58106 0.00460607 0)
(1.58234 0.0043896 0)
(1.58356 0.00416661 0)
(1.58472 0.00393635 0)
(1.58581 0.00369614 0)
(1.58684 0.00344499 0)
(1.58781 0.00317865 0)
(1.5887 0.00289599 0)
(1.58952 0.00259066 0)
(1.59025 0.00226106 0)
(1.5909 0.00189875 0)
(1.59145 0.0015015 0)
(1.5919 0.00105814 0)
(1.59223 0.000570654 0)
(1.59243 1.91585e-05 0)
(1.59248 -0.000603286 0)
(1.59236 -0.00131081 0)
(1.59206 -0.0021195 0)
(1.59154 -0.00304739 0)
(1.59077 -0.00411592 0)
(1.58972 -0.00535106 0)
(1.58834 -0.00678416 0)
(1.58659 -0.00845308 0)
(1.5844 -0.0104036 0)
(1.5817 -0.0126916 0)
(1.5784 -0.0153851 0)
(1.57441 -0.0185682 0)
(1.56961 -0.0223448 0)
(1.56384 -0.0268441 0)
(1.55694 -0.0322277 0)
(1.54869 -0.0386991 0)
(1.53884 -0.046516 0)
(1.52708 -0.0560069 0)
(1.51304 -0.0675938 0)
(1.49625 -0.0818222 0)
(1.47613 -0.0994017 0)
(1.45196 -0.121262 0)
(1.42283 -0.148627 0)
(1.38757 -0.183122 0)
(1.34463 -0.226903 0)
(1.29185 -0.282865 0)
(1.22614 -0.354775 0)
(1.1428 -0.447861 0)
(1.03418 -0.568109 0)
(0.888601 -0.724283 0)
(0.684199 -0.916587 0)
(0.336719 -1.07911 0)
(1.47764 0.000290658 0)
(1.47784 0.000866981 0)
(1.4783 0.00142551 0)
(1.479 0.00195317 0)
(1.4799 0.00244116 0)
(1.48099 0.00288541 0)
(1.48225 0.00328518 0)
(1.48365 0.00364161 0)
(1.48518 0.00395704 0)
(1.48682 0.00423455 0)
(1.48857 0.00447773 0)
(1.4904 0.00469035 0)
(1.4923 0.00487607 0)
(1.49427 0.00503825 0)
(1.49629 0.00517989 0)
(1.49837 0.00530356 0)
(1.50049 0.00541147 0)
(1.50264 0.00550546 0)
(1.50483 0.00558707 0)
(1.50705 0.00565753 0)
(1.50929 0.00571785 0)
(1.51156 0.00576881 0)
(1.51384 0.00581101 0)
(1.51614 0.00584488 0)
(1.51844 0.00587073 0)
(1.52076 0.00588877 0)
(1.52308 0.00589907 0)
(1.52541 0.00590176 0)
(1.52773 0.00589662 0)
(1.53005 0.00588379 0)
(1.53237 0.00586317 0)
(1.53467 0.00583466 0)
(1.53696 0.00579819 0)
(1.53924 0.00575375 0)
(1.5415 0.00570134 0)
(1.54374 0.0056411 0)
(1.54595 0.00557313 0)
(1.54813 0.00549769 0)
(1.55029 0.00541496 0)
(1.55241 0.00532534 0)
(1.55449 0.00522908 0)
(1.55653 0.00512669 0)
(1.55854 0.00501848 0)
(1.5605 0.00490499 0)
(1.56241 0.00478659 0)
(1.56428 0.00466379 0)
(1.5661 0.00453699 0)
(1.56787 0.00440664 0)
(1.56959 0.00427313 0)
(1.57125 0.00413681 0)
(1.57286 0.00399791 0)
(1.57442 0.00385665 0)
(1.57592 0.00371288 0)
(1.57737 0.00356669 0)
(1.57876 0.00341748 0)
(1.58009 0.0032652 0)
(1.58136 0.00310876 0)
(1.58257 0.0029479 0)
(1.58373 0.00278097 0)
(1.58481 0.00260723 0)
(1.58583 0.00242464 0)
(1.58678 0.00223149 0)
(1.58766 0.00202551 0)
(1.58846 0.00180348 0)
(1.58916 0.0015629 0)
(1.58978 0.00129834 0)
(1.59029 0.00100726 0)
(1.5907 0.000681607 0)
(1.59097 0.000321214 0)
(1.59111 -8.02573e-05 0)
(1.5911 -0.000536237 0)
(1.5909 -0.00105416 0)
(1.5905 -0.00164684 0)
(1.58986 -0.00232798 0)
(1.58896 -0.00311323 0)
(1.58774 -0.00402164 0)
(1.58617 -0.00507659 0)
(1.58419 -0.00630638 0)
(1.58172 -0.00774537 0)
(1.57869 -0.00943544 0)
(1.57499 -0.011428 0)
(1.57052 -0.0137867 0)
(1.56512 -0.0165902 0)
(1.55863 -0.019937 0)
(1.55083 -0.0239504 0)
(1.54148 -0.0287864 0)
(1.53027 -0.0346431 0)
(1.5168 -0.0417739 0)
(1.5006 -0.0505052 0)
(1.48107 -0.061259 0)
(1.45745 -0.0745853 0)
(1.42881 -0.0912013 0)
(1.3939 -0.112045 0)
(1.35116 -0.13834 0)
(1.29851 -0.17167 0)
(1.23319 -0.214042 0)
(1.15145 -0.267925 0)
(1.04815 -0.336176 0)
(0.915721 -0.421483 0)
(0.74356 -0.525578 0)
(0.511065 -0.646051 0)
(0.187593 -0.796969 0)
(1.47764 0.00017188 0)
(1.47783 0.000512806 0)
(1.47827 0.000843697 0)
(1.47894 0.00115714 0)
(1.47981 0.00144803 0)
(1.48087 0.00171377 0)
(1.48209 0.00195364 0)
(1.48345 0.00216809 0)
(1.48495 0.0023583 0)
(1.48657 0.00252599 0)
(1.48828 0.00267317 0)
(1.49009 0.002802 0)
(1.49197 0.0029146 0)
(1.49392 0.00301297 0)
(1.49593 0.00309887 0)
(1.49799 0.00317385 0)
(1.50009 0.00323927 0)
(1.50224 0.00329623 0)
(1.50442 0.00334568 0)
(1.50663 0.00338837 0)
(1.50886 0.00342493 0)
(1.51111 0.00345584 0)
(1.51339 0.00348145 0)
(1.51568 0.00350204 0)
(1.51798 0.00351779 0)
(1.52029 0.00352884 0)
(1.5226 0.00353521 0)
(1.52492 0.00353705 0)
(1.52724 0.00353405 0)
(1.52955 0.0035265 0)
(1.53186 0.00351419 0)
(1.53415 0.00349719 0)
(1.53644 0.00347536 0)
(1.53871 0.00344878 0)
(1.54096 0.00341733 0)
(1.54319 0.00338123 0)
(1.5454 0.00334038 0)
(1.54757 0.00329511 0)
(1.54972 0.00324534 0)
(1.55183 0.00319153 0)
(1.55391 0.00313356 0)
(1.55595 0.00307204 0)
(1.55795 0.00300682 0)
(1.5599 0.00293857 0)
(1.56182 0.00286713 0)
(1.56368 0.00279321 0)
(1.56549 0.00271663 0)
(1.56726 0.00263806 0)
(1.56897 0.00255732 0)
(1.57063 0.00247501 0)
(1.57224 0.00239083 0)
(1.5738 0.00230536 0)
(1.5753 0.00221799 0)
(1.57674 0.00212938 0)
(1.57813 0.00203842 0)
(1.57945 0.00194597 0)
(1.58073 0.00185031 0)
(1.58193 0.00175247 0)
(1.58308 0.00165009 0)
(1.58416 0.00154425 0)
(1.58517 0.00143201 0)
(1.58611 0.00131413 0)
(1.58697 0.00118748 0)
(1.58775 0.00105171 0)
(1.58845 0.000903926 0)
(1.58905 0.000742141 0)
(1.58954 0.000562709 0)
(1.58991 0.000362681 0)
(1.59015 0.000137028 0)
(1.59024 -0.000105753 0)
(1.59018 -0.000387127 0)
(1.58993 -0.00070495 0)
(1.58945 -0.00106789 0)
(1.58874 -0.00148536 0)
(1.58774 -0.00196686 0)
(1.58642 -0.00252393 0)
(1.58472 -0.00317099 0)
(1.58257 -0.00392562 0)
(1.57991 -0.00480915 0)
(1.57665 -0.00584758 0)
(1.57268 -0.00707285 0)
(1.56786 -0.00852451 0)
(1.56205 -0.0102517 0)
(1.55506 -0.0123159 0)
(1.54664 -0.0147943 0)
(1.53652 -0.0177851 0)
(1.52435 -0.0214127 0)
(1.50967 -0.0258368 0)
(1.49194 -0.0312632 0)
(1.47048 -0.037958 0)
(1.4444 -0.046267 0)
(1.41259 -0.0566397 0)
(1.37362 -0.0696591 0)
(1.32566 -0.086075 0)
(1.26635 -0.106833 0)
(1.19264 -0.133092 0)
(1.10067 -0.166176 0)
(0.985567 -0.207386 0)
(0.841285 -0.257537 0)
(0.661215 -0.315367 0)
(0.437962 -0.378236 0)
(0.166555 -0.395403 0)
(1.47825 0.000279556 0)
(1.47891 0.000383525 0)
(1.47977 0.000480127 0)
(1.48081 0.000568487 0)
(1.48201 0.000648326 0)
(1.48336 0.000719754 0)
(1.48484 0.000783146 0)
(1.48644 0.000839049 0)
(1.48814 0.000888121 0)
(1.48994 0.000931075 0)
(1.49181 0.000968617 0)
(1.49375 0.00100141 0)
(1.49575 0.00103004 0)
(1.4978 0.00105505 0)
(1.4999 0.00107686 0)
(1.50204 0.00109586 0)
(1.50421 0.00111237 0)
(1.50641 0.00112662 0)
(1.50864 0.00113883 0)
(1.5109 0.00114915 0)
(1.51317 0.00115768 0)
(1.51545 0.00116451 0)
(1.51775 0.00116971 0)
(1.52005 0.00117329 0)
(1.52236 0.00117527 0)
(1.52468 0.00117571 0)
(1.52699 0.00117443 0)
(1.5293 0.00117162 0)
(1.53161 0.0011671 0)
(1.5339 0.00116101 0)
(1.53618 0.00115321 0)
(1.53845 0.00114379 0)
(1.5407 0.00113265 0)
(1.54292 0.00111993 0)
(1.54513 0.00110554 0)
(1.54729 0.00108967 0)
(1.54944 0.00107219 0)
(1.55155 0.00105338 0)
(1.55363 0.00103306 0)
(1.55566 0.00101163 0)
(1.55766 0.000988767 0)
(1.5596 0.000965057 0)
(1.56152 0.000940002 0)
(1.56337 0.000914361 0)
(1.5652 0.000887471 0)
(1.56695 0.000860202 0)
(1.56867 0.000831818 0)
(1.57032 0.000803167 0)
(1.57194 0.000773531 0)
(1.57348 0.000743647 0)
(1.57499 0.000712799 0)
(1.57642 0.000681696 0)
(1.57782 0.000649406 0)
(1.57913 0.000616919 0)
(1.58041 0.000582651 0)
(1.5816 0.000548372 0)
(1.58276 0.000511279 0)
(1.58382 0.000474441 0)
(1.58485 0.00043337 0)
(1.58576 0.000392642 0)
(1.58664 0.000346141 0)
(1.5874 0.0002994 0)
(1.5881 0.000245511 0)
(1.58867 0.000189914 0)
(1.58916 0.000124864 0)
(1.58951 5.77025e-05 0)
(1.58975 -3.55916e-05 0)
(1.5898 -0.000109477 0)
(1.58971 -0.000207125 0)
(1.58943 -0.000317744 0)
(1.58893 -0.000443142 0)
(1.58817 -0.000586992 0)
(1.58713 -0.00075257 0)
(1.58575 -0.00094358 0)
(1.58398 -0.00116477 0)
(1.58176 -0.00142207 0)
(1.579 -0.00172265 0)
(1.57562 -0.00207531 0)
(1.5715 -0.00249089 0)
(1.56652 -0.00298283 0)
(1.5605 -0.00356789 0)
(1.55324 -0.004267 0)
(1.54451 -0.00510652 0)
(1.53399 -0.00611976 0)
(1.52132 -0.00734911 0)
(1.50602 -0.00884886 0)
(1.48751 -0.0106889 0)
(1.46505 -0.0129597 0)
(1.4377 -0.0157783 0)
(1.40426 -0.0192969 0)
(1.36321 -0.0237115 0)
(1.31259 -0.0292721 0)
(1.24992 -0.0362907 0)
(1.17207 -0.04514 0)
(1.07517 -0.0562271 0)
(0.954643 -0.0699225 0)
(0.805241 -0.0863281 0)
(0.622379 -0.105087 0)
(0.400445 -0.123569 0)
(0.141846 -0.142935 0)
(1.46082 0.00792087 0)
(1.45128 0.0148469 0)
(1.43397 0.0174262 0)
(1.41113 0.0185005 0)
(1.387 0.0191971 0)
(1.36294 0.019666 0)
(1.3388 0.0199403 0)
(1.3144 0.0200625 0)
(1.28977 0.0200892 0)
(1.26504 0.0200525 0)
(1.2403 0.0199661 0)
(1.21558 0.0198305 0)
(1.19091 0.0196423 0)
(1.16633 0.0194173 0)
(1.14188 0.0191717 0)
(1.11755 0.0189106 0)
(1.09337 0.0186345 0)
(1.06935 0.018343 0)
(1.04551 0.018036 0)
(1.02186 0.0177148 0)
(0.998418 0.017383 0)
(0.975205 0.0170424 0)
(0.952234 0.0166919 0)
(0.929516 0.0163336 0)
(0.907066 0.0159659 0)
(0.884897 0.0155901 0)
(0.863028 0.0152126 0)
(0.841479 0.0148513 0)
(0.820014 0.0144779 0)
(0.799083 0.0140583 0)
(0.778542 0.013596 0)
(0.758413 0.0131053 0)
(0.738758 0.0125924 0)
(0.719613 0.0120604 0)
(0.700998 0.0115121 0)
(0.682936 0.0109505 0)
(0.665449 0.0103783 0)
(0.648561 0.00979742 0)
(0.632287 0.00921007 0)
(0.61665 0.00861895 0)
(0.601657 0.00802696 0)
(0.587325 0.00743714 0)
(0.573654 0.00685384 0)
(0.560658 0.00626691 0)
(0.548349 0.00568516 0)
(0.536717 0.0051261 0)
(0.525744 0.00459343 0)
(0.515423 0.00408583 0)
(0.505739 0.0036024 0)
(0.496681 0.00314375 0)
(0.488237 0.00270857 0)
(0.480389 0.00229637 0)
(0.47312 0.0019073 0)
(0.466406 0.00154222 0)
(0.46023 0.00120084 0)
(0.454563 0.000882806 0)
(0.449391 0.000586658 0)
(0.444683 0.000310504 0)
(0.440432 5.88413e-05 0)
(0.436603 -0.000177079 0)
(0.433198 -0.000401022 0)
(0.430181 -0.000614752 0)
(0.427575 -0.000820433 0)
(0.425331 -0.00102126 0)
(0.423502 -0.00121953 0)
(0.422021 -0.00142101 0)
(0.420983 -0.00161675 0)
(0.420295 -0.00184363 0)
(0.420139 -0.00205241 0)
(0.420413 -0.00232836 0)
(0.42124 -0.00270333 0)
(0.422663 -0.00307586 0)
(0.424709 -0.00344481 0)
(0.42744 -0.00384908 0)
(0.43091 -0.00431787 0)
(0.435231 -0.00485261 0)
(0.440494 -0.00538403 0)
(0.446812 -0.00599868 0)
(0.454315 -0.00670086 0)
(0.463163 -0.00752415 0)
(0.473544 -0.00848258 0)
(0.485668 -0.00957013 0)
(0.499775 -0.0108041 0)
(0.516134 -0.0122053 0)
(0.535054 -0.0137954 0)
(0.556874 -0.0155924 0)
(0.581973 -0.0176149 0)
(0.610776 -0.0198943 0)
(0.643776 -0.0224668 0)
(0.681542 -0.0253506 0)
(0.72467 -0.0285441 0)
(0.773857 -0.0320448 0)
(0.829353 -0.0359682 0)
(0.892645 -0.0404205 0)
(0.964363 -0.0453959 0)
(1.04421 -0.0502952 0)
(1.13234 -0.0545492 0)
(1.22806 -0.0582351 0)
(1.33042 -0.0612392 0)
(1.43818 -0.0631411 0)
(1.54932 -0.0634837 0)
(1.66105 -0.0619258 0)
(1.47989 0.0112657 0)
(1.48676 0.020758 0)
(1.49459 0.0242299 0)
(1.49752 0.0260445 0)
(1.49889 0.0272128 0)
(1.49979 0.0282539 0)
(1.50013 0.0288019 0)
(1.49982 0.0292969 0)
(1.4989 0.0296106 0)
(1.49746 0.0298395 0)
(1.49552 0.0300395 0)
(1.49314 0.0302006 0)
(1.49034 0.0302824 0)
(1.48717 0.0303201 0)
(1.48365 0.0303408 0)
(1.47977 0.0303472 0)
(1.47554 0.0303358 0)
(1.47098 0.0303053 0)
(1.4661 0.0302537 0)
(1.46092 0.0301785 0)
(1.45544 0.0300822 0)
(1.44968 0.0299675 0)
(1.44364 0.0298328 0)
(1.43735 0.029677 0)
(1.43079 0.0295015 0)
(1.424 0.0293126 0)
(1.41698 0.0291129 0)
(1.40976 0.0289041 0)
(1.40237 0.0286497 0)
(1.39482 0.0283202 0)
(1.38709 0.0279311 0)
(1.3792 0.0274992 0)
(1.37118 0.0270282 0)
(1.36303 0.0265181 0)
(1.35479 0.0259698 0)
(1.34646 0.0253851 0)
(1.33806 0.0247657 0)
(1.32962 0.0241129 0)
(1.32115 0.0234292 0)
(1.31267 0.0227182 0)
(1.3042 0.0219829 0)
(1.29575 0.0212263 0)
(1.28734 0.0204527 0)
(1.27898 0.0196642 0)
(1.27064 0.0188615 0)
(1.26239 0.0180518 0)
(1.25424 0.0172396 0)
(1.24619 0.0164274 0)
(1.23828 0.0156208 0)
(1.23049 0.0148123 0)
(1.22286 0.0140139 0)
(1.21537 0.0132278 0)
(1.20806 0.01246 0)
(1.20092 0.0117098 0)
(1.19397 0.0109818 0)
(1.18718 0.0102729 0)
(1.18062 0.00958677 0)
(1.17422 0.00891829 0)
(1.16806 0.00827098 0)
(1.16209 0.00763773 0)
(1.15636 0.00702121 0)
(1.15083 0.00641149 0)
(1.14558 0.00581052 0)
(1.14054 0.00520486 0)
(1.13581 0.00459692 0)
(1.13132 0.00396785 0)
(1.12718 0.00332208 0)
(1.12331 0.00263046 0)
(1.11985 0.00190737 0)
(1.11668 0.00111578 0)
(1.11397 0.000277116 0)
(1.11166 -0.000657519 0)
(1.10988 -0.0016851 0)
(1.10873 -0.0028227 0)
(1.10826 -0.00401953 0)
(1.10852 -0.00541246 0)
(1.10962 -0.0069831 0)
(1.11168 -0.00874807 0)
(1.11484 -0.0107351 0)
(1.11922 -0.0129768 0)
(1.125 -0.0155106 0)
(1.13236 -0.0183798 0)
(1.14149 -0.021632 0)
(1.15264 -0.0253174 0)
(1.16608 -0.0294902 0)
(1.18209 -0.0342076 0)
(1.20104 -0.0395406 0)
(1.22333 -0.0455848 0)
(1.24943 -0.0524594 0)
(1.27985 -0.0602597 0)
(1.31514 -0.0689678 0)
(1.35573 -0.0785078 0)
(1.40194 -0.0889474 0)
(1.45408 -0.100384 0)
(1.51303 -0.112845 0)
(1.57736 -0.125411 0)
(1.64972 -0.137124 0)
(1.72911 -0.147933 0)
(1.81541 -0.157385 0)
(1.90826 -0.164493 0)
(2.00642 -0.168093 0)
(2.10768 -0.167198 0)
(1.47847 0.00517302 0)
(1.48163 0.0113204 0)
(1.48608 0.0145198 0)
(1.49042 0.0168938 0)
(1.49394 0.0188382 0)
(1.49724 0.0204924 0)
(1.50032 0.0218124 0)
(1.50328 0.0228856 0)
(1.50589 0.0237564 0)
(1.50845 0.0245229 0)
(1.51064 0.025185 0)
(1.51314 0.0257627 0)
(1.51527 0.0262863 0)
(1.51721 0.0267626 0)
(1.51902 0.027193 0)
(1.5207 0.0275838 0)
(1.52226 0.0279459 0)
(1.5237 0.0282689 0)
(1.52502 0.0285567 0)
(1.52623 0.0288128 0)
(1.52729 0.0290345 0)
(1.52825 0.0292246 0)
(1.52909 0.0293745 0)
(1.52982 0.0295332 0)
(1.53043 0.029634 0)
(1.53093 0.0297033 0)
(1.53131 0.0297623 0)
(1.53156 0.0298021 0)
(1.5317 0.0297785 0)
(1.53173 0.0297088 0)
(1.53164 0.0295583 0)
(1.53143 0.0293489 0)
(1.53109 0.0290884 0)
(1.53062 0.0287782 0)
(1.53002 0.0284191 0)
(1.52929 0.0280124 0)
(1.52843 0.0275602 0)
(1.52744 0.0270606 0)
(1.52634 0.0265148 0)
(1.52512 0.0259305 0)
(1.52378 0.025315 0)
(1.52233 0.0246719 0)
(1.52078 0.0240018 0)
(1.51912 0.0233101 0)
(1.51737 0.0226017 0)
(1.51552 0.0218779 0)
(1.5136 0.0211415 0)
(1.51159 0.0203978 0)
(1.50951 0.0196506 0)
(1.50736 0.0188993 0)
(1.50516 0.0181453 0)
(1.50291 0.0173932 0)
(1.50062 0.0166486 0)
(1.4983 0.0159145 0)
(1.49596 0.0151923 0)
(1.4936 0.0144818 0)
(1.49124 0.0137824 0)
(1.48887 0.0130925 0)
(1.48652 0.0124103 0)
(1.48418 0.0117327 0)
(1.48187 0.0110556 0)
(1.4796 0.0103738 0)
(1.47738 0.00968196 0)
(1.47522 0.00897293 0)
(1.47313 0.00823977 0)
(1.47113 0.00747377 0)
(1.46923 0.0066666 0)
(1.46745 0.005816 0)
(1.46578 0.00485932 0)
(1.4643 0.00382222 0)
(1.46299 0.00266683 0)
(1.46192 0.00140527 0)
(1.46105 -1.74414e-05 0)
(1.46044 -0.00161042 0)
(1.46015 -0.00339641 0)
(1.46024 -0.00540445 0)
(1.46077 -0.00766752 0)
(1.46181 -0.0102264 0)
(1.46342 -0.0131267 0)
(1.46572 -0.0164206 0)
(1.4688 -0.0201667 0)
(1.47279 -0.0244291 0)
(1.47784 -0.0292789 0)
(1.48412 -0.0347931 0)
(1.49183 -0.0410583 0)
(1.50119 -0.0481594 0)
(1.51247 -0.0561962 0)
(1.52592 -0.065306 0)
(1.54187 -0.0756675 0)
(1.56064 -0.0874228 0)
(1.58246 -0.100515 0)
(1.60785 -0.114821 0)
(1.63743 -0.130428 0)
(1.67199 -0.147465 0)
(1.71264 -0.165638 0)
(1.75594 -0.184601 0)
(1.81113 -0.204028 0)
(1.87466 -0.223108 0)
(1.94666 -0.240586 0)
(2.02742 -0.254897 0)
(2.1162 -0.264093 0)
(2.21125 -0.266471 0)
(1.47801 0.00312101 0)
(1.47978 0.00857142 0)
(1.48287 0.0125372 0)
(1.48628 0.0154835 0)
(1.48933 0.0177357 0)
(1.49217 0.0195365 0)
(1.49498 0.020954 0)
(1.49775 0.0221238 0)
(1.50047 0.0230912 0)
(1.50312 0.023876 0)
(1.50571 0.0244619 0)
(1.50821 0.0249491 0)
(1.51068 0.0254161 0)
(1.51314 0.0258577 0)
(1.51559 0.0262529 0)
(1.51804 0.0266004 0)
(1.52044 0.0269038 0)
(1.52283 0.0271751 0)
(1.52518 0.0274157 0)
(1.52754 0.0276311 0)
(1.52987 0.0278197 0)
(1.5322 0.0279817 0)
(1.53448 0.0281156 0)
(1.53677 0.028216 0)
(1.53903 0.0282892 0)
(1.54132 0.0283411 0)
(1.54352 0.0283694 0)
(1.54586 0.0283712 0)
(1.54819 0.028338 0)
(1.55043 0.0282631 0)
(1.55261 0.0281435 0)
(1.55474 0.0279808 0)
(1.5568 0.0277754 0)
(1.55878 0.0275283 0)
(1.56069 0.0272406 0)
(1.56253 0.026913 0)
(1.56428 0.0265464 0)
(1.56596 0.0261424 0)
(1.56754 0.0257027 0)
(1.56901 0.0252238 0)
(1.5704 0.0247005 0)
(1.57172 0.0241482 0)
(1.57294 0.0235921 0)
(1.57408 0.0230196 0)
(1.57514 0.0224111 0)
(1.57611 0.0217814 0)
(1.57699 0.0211365 0)
(1.57779 0.0204832 0)
(1.5785 0.01983 0)
(1.57912 0.0191685 0)
(1.57966 0.0184917 0)
(1.58014 0.0178051 0)
(1.58055 0.0171174 0)
(1.58089 0.0164328 0)
(1.58117 0.0157531 0)
(1.58139 0.0150783 0)
(1.58156 0.014408 0)
(1.58168 0.0137404 0)
(1.58176 0.0130733 0)
(1.58181 0.0124034 0)
(1.58182 0.0117262 0)
(1.58181 0.0110363 0)
(1.58179 0.0103273 0)
(1.58175 0.00959146 0)
(1.58171 0.00881973 0)
(1.58167 0.00800134 0)
(1.58165 0.00712573 0)
(1.58165 0.0061812 0)
(1.58169 0.00515219 0)
(1.58176 0.00402 0)
(1.58189 0.00276488 0)
(1.58207 0.0013676 0)
(1.58235 -0.000199089 0)
(1.58271 -0.00195658 0)
(1.58319 -0.00393376 0)
(1.5838 -0.00617166 0)
(1.58458 -0.00871432 0)
(1.58556 -0.0116098 0)
(1.58678 -0.014911 0)
(1.58831 -0.0186777 0)
(1.59018 -0.0229809 0)
(1.59248 -0.0278998 0)
(1.5953 -0.0335252 0)
(1.59873 -0.039957 0)
(1.60294 -0.0473265 0)
(1.60807 -0.0557365 0)
(1.6143 -0.065294 0)
(1.62189 -0.0761866 0)
(1.63127 -0.0885716 0)
(1.64225 -0.102655 0)
(1.6552 -0.118578 0)
(1.6718 -0.136545 0)
(1.69308 -0.156723 0)
(1.71914 -0.179145 0)
(1.7512 -0.203467 0)
(1.79067 -0.229856 0)
(1.83838 -0.258279 0)
(1.89535 -0.287341 0)
(1.96288 -0.314963 0)
(2.04178 -0.339092 0)
(2.13179 -0.356409 0)
(2.23091 -0.364357 0)
(1.47783 0.00224539 0)
(1.47886 0.00650429 0)
(1.48089 0.00987469 0)
(1.48337 0.0124204 0)
(1.48585 0.0143986 0)
(1.4883 0.0160168 0)
(1.49077 0.0173557 0)
(1.49327 0.0184579 0)
(1.49576 0.019367 0)
(1.49823 0.0201322 0)
(1.50068 0.0207877 0)
(1.50311 0.0213603 0)
(1.50552 0.0218785 0)
(1.50793 0.0223494 0)
(1.51035 0.0227699 0)
(1.51279 0.0231449 0)
(1.51523 0.0234829 0)
(1.51769 0.0237893 0)
(1.52016 0.0240665 0)
(1.52264 0.0243162 0)
(1.52513 0.0245384 0)
(1.52764 0.0247337 0)
(1.53016 0.0249005 0)
(1.53269 0.025053 0)
(1.53522 0.0251805 0)
(1.53775 0.0252788 0)
(1.54028 0.0253386 0)
(1.54279 0.0253549 0)
(1.54529 0.0253468 0)
(1.54779 0.0253223 0)
(1.5503 0.0252691 0)
(1.55279 0.025178 0)
(1.55527 0.0250447 0)
(1.5577 0.0248717 0)
(1.56012 0.0246554 0)
(1.56247 0.0244016 0)
(1.56481 0.0241053 0)
(1.56708 0.0237767 0)
(1.56932 0.0234097 0)
(1.57148 0.0230161 0)
(1.57362 0.022581 0)
(1.57565 0.0221221 0)
(1.57766 0.0216221 0)
(1.57956 0.0211046 0)
(1.58144 0.0205539 0)
(1.58321 0.0200017 0)
(1.58496 0.0194211 0)
(1.58659 0.0188443 0)
(1.58822 0.0182535 0)
(1.58983 0.0176551 0)
(1.59133 0.0170523 0)
(1.59274 0.0164478 0)
(1.59408 0.015843 0)
(1.59534 0.0152388 0)
(1.59653 0.0146352 0)
(1.59766 0.0140323 0)
(1.59873 0.013429 0)
(1.59974 0.0128239 0)
(1.60071 0.0122144 0)
(1.60163 0.0115973 0)
(1.6025 0.0109682 0)
(1.60334 0.0103218 0)
(1.60414 0.0096516 0)
(1.60492 0.00895007 0)
(1.60567 0.00820876 0)
(1.60639 0.00741728 0)
(1.60709 0.00656356 0)
(1.60778 0.00563429 0)
(1.60845 0.0046108 0)
(1.60912 0.00347486 0)
(1.60978 0.00220819 0)
(1.61045 0.000791522 0)
(1.61112 -0.0007978 0)
(1.61179 -0.00259477 0)
(1.61248 -0.00463339 0)
(1.61319 -0.00695389 0)
(1.61394 -0.00960156 0)
(1.61475 -0.012627 0)
(1.61563 -0.0160902 0)
(1.61661 -0.0200595 0)
(1.61774 -0.0246187 0)
(1.61907 -0.0298635 0)
(1.62064 -0.0358934 0)
(1.6225 -0.0428277 0)
(1.62484 -0.0508075 0)
(1.62741 -0.0600068 0)
(1.63109 -0.0706233 0)
(1.63575 -0.0828633 0)
(1.64169 -0.0969215 0)
(1.64943 -0.112949 0)
(1.6595 -0.131407 0)
(1.67239 -0.152821 0)
(1.68875 -0.177462 0)
(1.70961 -0.205409 0)
(1.73633 -0.23676 0)
(1.77047 -0.271655 0)
(1.81371 -0.309736 0)
(1.86806 -0.349991 0)
(1.93528 -0.390159 0)
(2.01768 -0.428277 0)
(2.11547 -0.457772 0)
(2.22641 -0.475413 0)
(1.47774 0.00170851 0)
(1.4784 0.00502044 0)
(1.47982 0.00788497 0)
(1.48174 0.0102458 0)
(1.48384 0.0121897 0)
(1.486 0.0138264 0)
(1.48822 0.015211 0)
(1.49049 0.0163777 0)
(1.49279 0.0173579 0)
(1.49511 0.0181863 0)
(1.49742 0.0188884 0)
(1.49974 0.0194902 0)
(1.50205 0.0200133 0)
(1.50438 0.0204736 0)
(1.50672 0.020879 0)
(1.50907 0.0212367 0)
(1.51144 0.0215532 0)
(1.51383 0.0218334 0)
(1.51622 0.0220802 0)
(1.51864 0.0222963 0)
(1.52106 0.0224834 0)
(1.5235 0.0226434 0)
(1.52596 0.0227771 0)
(1.52842 0.0228857 0)
(1.5309 0.0229676 0)
(1.53338 0.023023 0)
(1.53587 0.0230509 0)
(1.53837 0.0230528 0)
(1.54087 0.0230344 0)
(1.54337 0.0229944 0)
(1.54587 0.0229253 0)
(1.54836 0.0228215 0)
(1.55085 0.022682 0)
(1.55331 0.0225089 0)
(1.55577 0.0223017 0)
(1.55819 0.0220628 0)
(1.56059 0.0217918 0)
(1.56295 0.0214916 0)
(1.56528 0.0211609 0)
(1.56756 0.0208015 0)
(1.56981 0.0204108 0)
(1.57199 0.0199953 0)
(1.57413 0.01956 0)
(1.57621 0.0191107 0)
(1.57824 0.0186417 0)
(1.58019 0.0181558 0)
(1.58209 0.0176523 0)
(1.58393 0.0171334 0)
(1.58569 0.0165947 0)
(1.58738 0.0160503 0)
(1.58901 0.0155121 0)
(1.59059 0.0149776 0)
(1.59211 0.0144419 0)
(1.59357 0.0139034 0)
(1.59498 0.0133619 0)
(1.59633 0.0128163 0)
(1.59762 0.0122688 0)
(1.59886 0.011711 0)
(1.60006 0.0111464 0)
(1.6012 0.0105708 0)
(1.6023 0.00997874 0)
(1.60336 0.00936648 0)
(1.60438 0.00872627 0)
(1.60536 0.00805315 0)
(1.6063 0.0073365 0)
(1.60721 0.0065673 0)
(1.60808 0.00573341 0)
(1.60892 0.00482027 0)
(1.60973 0.00381168 0)
(1.6105 0.00269056 0)
(1.61123 0.00143813 0)
(1.61193 3.26531e-05 0)
(1.6126 -0.0015504 0)
(1.61325 -0.00334238 0)
(1.61387 -0.00537819 0)
(1.61446 -0.00769869 0)
(1.61501 -0.0103517 0)
(1.61555 -0.0133921 0)
(1.61608 -0.0168854 0)
(1.6166 -0.0209101 0)
(1.61716 -0.0255558 0)
(1.61771 -0.0309231 0)
(1.61835 -0.03713 0)
(1.61913 -0.0443213 0)
(1.62018 -0.0526538 0)
(1.62158 -0.062359 0)
(1.62343 -0.0737069 0)
(1.62589 -0.0869293 0)
(1.62925 -0.102315 0)
(1.63388 -0.120265 0)
(1.64023 -0.141284 0)
(1.64889 -0.165884 0)
(1.66065 -0.194527 0)
(1.67659 -0.227678 0)
(1.69816 -0.265824 0)
(1.72725 -0.309328 0)
(1.76607 -0.358144 0)
(1.81773 -0.41173 0)
(1.88441 -0.467388 0)
(1.97263 -0.52476 0)
(2.07986 -0.570545 0)
(2.21289 -0.610611 0)
(1.4777 0.0013509 0)
(1.47818 0.0040006 0)
(1.47925 0.00641683 0)
(1.48077 0.00850406 0)
(1.48252 0.0102625 0)
(1.4844 0.0117494 0)
(1.48637 0.0130132 0)
(1.48842 0.0140845 0)
(1.49054 0.0149886 0)
(1.4927 0.0157534 0)
(1.49489 0.0164037 0)
(1.4971 0.0169623 0)
(1.49934 0.0174479 0)
(1.50159 0.0178744 0)
(1.50387 0.0182511 0)
(1.50617 0.0185841 0)
(1.50848 0.0188789 0)
(1.51082 0.0191398 0)
(1.51317 0.0193704 0)
(1.51554 0.0195737 0)
(1.51792 0.0197514 0)
(1.52032 0.0199051 0)
(1.52274 0.0200358 0)
(1.52516 0.0201444 0)
(1.52759 0.020231 0)
(1.53004 0.0202947 0)
(1.53248 0.0203349 0)
(1.53494 0.0203513 0)
(1.53739 0.0203438 0)
(1.53984 0.0203113 0)
(1.54229 0.0202522 0)
(1.54473 0.0201641 0)
(1.54716 0.0200465 0)
(1.54958 0.0198997 0)
(1.55198 0.0197234 0)
(1.55435 0.0195181 0)
(1.5567 0.0192842 0)
(1.55901 0.0190227 0)
(1.56129 0.0187339 0)
(1.56354 0.0184196 0)
(1.56574 0.0180803 0)
(1.56789 0.017719 0)
(1.57 0.0173371 0)
(1.57206 0.0169372 0)
(1.57406 0.0165191 0)
(1.57602 0.0160859 0)
(1.57791 0.0156384 0)
(1.57975 0.0151793 0)
(1.58153 0.0147104 0)
(1.58325 0.014238 0)
(1.58491 0.0137658 0)
(1.58651 0.0132919 0)
(1.58806 0.0128136 0)
(1.58955 0.0123308 0)
(1.59099 0.0118437 0)
(1.59237 0.0113522 0)
(1.5937 0.0108553 0)
(1.59498 0.0103513 0)
(1.59622 0.0098378 0)
(1.5974 0.00931119 0)
(1.59854 0.00876822 0)
(1.59963 0.00820287 0)
(1.60067 0.00761063 0)
(1.60167 0.00698278 0)
(1.60262 0.0063131 0)
(1.60352 0.00558984 0)
(1.60438 0.00480226 0)
(1.60519 0.00393735 0)
(1.60595 0.00297973 0)
(1.60665 0.0019123 0)
(1.60729 0.000715533 0)
(1.60787 -0.000632879 0)
(1.60838 -0.00215994 0)
(1.60882 -0.00389612 0)
(1.60918 -0.00587455 0)
(1.60946 -0.00813593 0)
(1.60966 -0.0107303 0)
(1.60977 -0.0137167 0)
(1.60979 -0.017163 0)
(1.60971 -0.0211496 0)
(1.60955 -0.0257657 0)
(1.60932 -0.0311217 0)
(1.60902 -0.0373581 0)
(1.60869 -0.0446419 0)
(1.60836 -0.0531672 0)
(1.60809 -0.0631688 0)
(1.60797 -0.0749209 0)
(1.60813 -0.0887361 0)
(1.60877 -0.105006 0)
(1.61017 -0.124214 0)
(1.61273 -0.146949 0)
(1.61698 -0.173899 0)
(1.62368 -0.205861 0)
(1.63388 -0.243724 0)
(1.64914 -0.288472 0)
(1.67158 -0.341006 0)
(1.70413 -0.402087 0)
(1.75075 -0.471527 0)
(1.81512 -0.547055 0)
(1.90849 -0.628972 0)
(2.01976 -0.69158 0)
(2.19583 -0.776668 0)
(1.47768 0.00108988 0)
(1.47805 0.00323066 0)
(1.47889 0.00523342 0)
(1.48013 0.00701673 0)
(1.48162 0.00856379 0)
(1.48327 0.00989565 0)
(1.48505 0.0110497 0)
(1.48693 0.0120437 0)
(1.4889 0.0128962 0)
(1.49094 0.0136278 0)
(1.49303 0.0142578 0)
(1.49516 0.0148028 0)
(1.49732 0.0152773 0)
(1.49951 0.0156927 0)
(1.50173 0.0160577 0)
(1.50398 0.0163786 0)
(1.50625 0.0166606 0)
(1.50854 0.0169086 0)
(1.51086 0.0171262 0)
(1.51319 0.0173163 0)
(1.51554 0.0174808 0)
(1.51791 0.0176214 0)
(1.52029 0.0177392 0)
(1.52268 0.0178352 0)
(1.52508 0.0179095 0)
(1.52749 0.0179619 0)
(1.5299 0.0179921 0)
(1.53232 0.0180001 0)
(1.53473 0.0179859 0)
(1.53715 0.0179496 0)
(1.53956 0.0178905 0)
(1.54196 0.0178073 0)
(1.54436 0.0176991 0)
(1.54673 0.0175655 0)
(1.54909 0.0174065 0)
(1.55143 0.0172225 0)
(1.55374 0.0170139 0)
(1.55601 0.0167815 0)
(1.55826 0.0165262 0)
(1.56047 0.016249 0)
(1.56263 0.0159508 0)
(1.56475 0.0156333 0)
(1.56683 0.0152983 0)
(1.56886 0.0149477 0)
(1.57084 0.0145825 0)
(1.57276 0.0142044 0)
(1.57463 0.0138146 0)
(1.57645 0.013415 0)
(1.57821 0.0130071 0)
(1.57991 0.0125934 0)
(1.58156 0.0121755 0)
(1.58315 0.0117539 0)
(1.58468 0.0113282 0)
(1.58616 0.0108987 0)
(1.58759 0.0104649 0)
(1.58896 0.0100264 0)
(1.59028 0.00958168 0)
(1.59154 0.00912888 0)
(1.59276 0.00866528 0)
(1.59392 0.0081884 0)
(1.59503 0.00769362 0)
(1.59609 0.00717716 0)
(1.5971 0.00663235 0)
(1.59806 0.00605375 0)
(1.59896 0.00543218 0)
(1.59981 0.00476077 0)