/*--------------------------------*- C++ -*----------------------------------*\
| =========                 |                                                 |
| \\      /  F ield         | OpenFOAM: The Open Source CFD Toolbox           |
|  \\    /   O peration     | Version:  2206                                  |
|   \\  /    A nd           | Website:  www.openfoam.com                      |
|    \\/     M anipulation  |                                                 |
\*---------------------------------------------------------------------------*/
FoamFile
{
    version     2.0;
    format      ascii;
    arch        "LSB;label=32;scalar=64";
    class       volVectorField;
    location    "18.0999";
    object      ddt0(U);
}
// * * * * * * * * * * * * * * * * * * * * * * * * * * * * * * * * * * * * * //

dimensions      [0 1 -2 0 0 0 0];

internalField   nonuniform List<vector> 
4852
(
(30.8174 36.9816 0)
(28.7461 48.8116 0)
(26.4193 59.7018 0)
(23.8277 69.2095 0)
(20.9133 77.1453 0)
(17.6048 83.4902 0)
(13.855 88.2997 0)
(9.65942 91.6055 0)
(5.05761 93.3171 0)
(0.242239 93.4269 0)
(-4.57492 92.2468 0)
(-9.27543 89.7206 0)
(-13.7449 85.9384 0)
(-17.8317 81.0284 0)
(-21.4166 75.1717 0)
(-24.4238 68.5976 0)
(-26.8108 61.5555 0)
(-28.5673 54.2958 0)
(-29.7108 47.0546 0)
(-30.2791 40.0423 0)
(-30.3245 33.4381 0)
(-29.9066 27.3858 0)
(-29.0888 21.9958 0)
(-27.9386 17.3465 0)
(-26.5259 13.4856 0)
(-24.9232 10.4386 0)
(-23.2024 8.19394 0)
(-21.4329 6.69823 0)
(-19.6689 5.89407 0)
(-17.936 5.71545 0)
(-16.2355 6.10395 0)
(-14.5692 7.02011 0)
(-12.9557 8.38582 0)
(-11.4318 9.95521 0)
(-10.0518 11.335 0)
(-8.87348 12.1757 0)
(-7.9213 12.2423 0)
(-7.1625 11.4429 0)
(-6.4895 9.8662 0)
(-5.67001 7.76406 0)
(-4.66888 5.29624 0)
(-4.20162 2.06238 0)
(-3.40566 -3.0695 0)
(-2.52554 -9.37273 0)
(-1.69633 -15.8277 0)
(-1.00401 -22.7404 0)
(-0.448633 -30.1024 0)
(-0.0368283 -37.8702 0)
(0.205134 -45.9721 0)
(0.263301 -54.3095 0)
(0.138454 -62.7455 0)
(-0.156296 -71.0939 0)
(-0.599492 -79.1167 0)
(-1.16444 -86.5409 0)
(-1.82346 -93.0571 0)
(-2.55487 -98.3311 0)
(-3.31371 -101.993 0)
(-3.97016 -103.427 0)
(-4.45044 -102.546 0)
(-4.75614 -99.9847 0)
(-4.84173 -95.8413 0)
(-4.70388 -90.329 0)
(-4.35343 -83.6865 0)
(-3.82123 -76.1825 0)
(-3.15261 -68.133 0)
(-2.3851 -59.7782 0)
(-1.56248 -51.3391 0)
(-0.720844 -43.0531 0)
(0.130391 -35.0472 0)
(0.966061 -27.4328 0)
(1.7943 -20.404 0)
(2.55274 -13.928 0)
(3.09273 -7.9926 0)
(4.48412 -2.7218 0)
(5.99005 2.04479 0)
(7.8722 6.51759 0)
(9.47056 9.69481 0)
(11.0204 11.7558 0)
(12.6874 12.8305 0)
(14.3963 13.0872 0)
(16.0774 12.7198 0)
(17.6745 11.9629 0)
(19.1263 11.0724 0)
(20.3861 10.2938 0)
(21.4323 9.8352 0)
(22.27 9.84787 0)
(22.9238 10.4155 0)
(23.4283 11.5502 0)
(23.819 13.2026 0)
(24.1246 15.2834 0)
(24.3603 17.692 0)
(24.5238 20.3412 0)
(24.5942 23.1736 0)
(24.5326 26.1655 0)
(24.3024 29.3348 0)
(23.8564 32.682 0)
(23.1558 36.2264 0)
(22.1638 39.9695 0)
(20.8528 43.8843 0)
(19.2083 47.9107 0)
(17.2293 51.9561 0)
(14.929 55.9014 0)
(12.3354 59.6093 0)
(9.48953 62.9344 0)
(6.44492 65.7323 0)
(3.26822 67.8741 0)
(0.0302363 69.248 0)
(-3.17526 69.7223 0)
(-6.24063 69.1741 0)
(-9.12866 67.8504 0)
(-11.7956 65.7663 0)
(-14.1946 62.9734 0)
(-16.2903 59.5498 0)
(-18.059 55.5939 0)
(-19.4863 51.2189 0)
(-20.5681 46.5452 0)
(-21.3083 41.6943 0)
(-21.7189 36.7843 0)
(-21.82 31.9253 0)
(-21.6376 27.2138 0)
(-21.2026 22.7306 0)
(-20.55 18.5388 0)
(-19.7157 14.6823 0)
(-18.7328 11.1864 0)
(-17.6313 8.06486 0)
(-16.4354 5.32742 0)
(-15.1622 2.95894 0)
(-13.8512 0.944546 0)
(-12.5457 -0.75588 0)
(-11.2918 -2.21051 0)
(-10.1371 -3.50214 0)
(-9.12627 -4.71098 0)
(-8.26607 -5.87259 0)
(-7.58974 -7.06224 0)
(-7.09799 -8.38131 0)
(-6.77458 -9.90655 0)
(-6.62129 -11.7058 0)
(-6.63292 -13.836 0)
(30.0778 38.8746 0)
(28.4416 51.0422 0)
(26.4958 62.2676 0)
(24.1886 72.1672 0)
(21.4424 80.5758 0)
(18.187 87.4571 0)
(14.39 92.8145 0)
(10.0778 96.6125 0)
(5.33052 98.7196 0)
(0.339954 98.9398 0)
(-4.65231 97.6983 0)
(-9.49771 94.9585 0)
(-14.0493 90.7907 0)
(-18.162 85.3518 0)
(-21.7233 78.8617 0)
(-24.6592 71.589 0)
(-26.9336 63.8222 0)
(-28.545 55.8468 0)
(-29.5215 47.9264 0)
(-29.9129 40.2912 0)
(-29.7809 33.1299 0)
(-29.191 26.5906 0)
(-28.2068 20.7856 0)
(-26.8888 15.7969 0)
(-25.2978 11.6772 0)
(-23.4992 8.44848 0)
(-21.5732 6.106 0)
(-19.5989 4.59865 0)
(-17.6396 3.82677 0)
(-15.7365 3.69761 0)
(-13.8831 4.12782 0)
(-12.061 5.07556 0)
(-10.2814 6.50938 0)
(-8.55707 8.19376 0)
(-6.94591 9.73337 0)
(-5.53291 10.8445 0)
(-4.30388 11.1549 0)
(-3.29904 10.5625 0)
(-2.4924 9.00012 0)
(-1.78798 6.65031 0)
(-0.973589 4.1357 0)
(-0.0048196 1.94708 0)
(1.25851 -4.4186 0)
(2.2284 -10.4772 0)
(3.00289 -16.6992 0)
(3.72332 -23.4635 0)
(4.32445 -30.6626 0)
(4.74513 -38.2317 0)
(4.95009 -46.105 0)
(4.91154 -54.1989 0)
(4.6177 -62.393 0)
(4.07241 -70.5145 0)
(3.29174 -78.3355 0)
(2.30152 -85.5899 0)
(1.13562 -91.9692 0)
(-0.170387 -97.1513 0)
(-1.56287 -100.803 0)
(-2.91143 -102.372 0)
(-4.10826 -101.675 0)
(-5.12773 -99.3482 0)
(-5.91232 -95.4662 0)
(-6.44274 -90.2247 0)
(-6.71518 -83.838 0)
(-6.7406 -76.5577 0)
(-6.55311 -68.6889 0)
(-6.18743 -60.4715 0)
(-5.67805 -52.1319 0)
(-5.06377 -43.9073 0)
(-4.36895 -35.9314 0)
(-3.60169 -28.3194 0)
(-2.77749 -21.2145 0)
(-1.8914 -14.6739 0)
(-0.92074 -8.86336 0)
(0.216714 -4.09533 0)
(1.59423 -0.626586 0)
(3.57779 4.54847 0)
(5.43262 7.91471 0)
(7.17466 9.86668 0)
(8.98325 10.8772 0)
(10.8161 11.1264 0)
(12.6068 10.8213 0)
(14.3044 10.1946 0)
(15.8523 9.49248 0)
(17.2067 8.93808 0)
(18.3536 8.7085 0)
(19.3086 8.93063 0)
(20.1005 9.67511 0)
(20.7601 10.9503 0)
(21.3147 12.7113 0)
(21.7837 14.8815 0)
(22.1737 17.3775 0)
(22.474 20.13 0)
(22.655 23.0961 0)
(22.6915 26.2804 0)
(22.5382 29.6707 0)
(22.1582 33.2882 0)
(21.5121 37.1467 0)
(20.5662 41.2374 0)
(19.298 45.5207 0)
(17.6976 49.9215 0)
(15.7686 54.3322 0)
(13.5291 58.6171 0)
(11.0101 62.6238 0)
(8.25552 66.1934 0)
(5.32095 69.1702 0)
(2.27179 71.4125 0)
(-0.814915 72.7947 0)
(-3.8336 73.1429 0)
(-6.69188 72.4167 0)
(-9.36065 70.8598 0)
(-11.7924 68.4908 0)
(-13.9452 65.3717 0)
(-15.7904 61.5913 0)
(-17.3097 57.2597 0)
(-18.4943 52.5012 0)
(-19.3441 47.446 0)
(-19.8647 42.2233 0)
(-20.0699 36.9607 0)
(-19.9802 31.7757 0)
(-19.6215 26.7706 0)
(-19.0253 22.0309 0)
(-18.2278 17.6226 0)
(-17.2666 13.5891 0)
(-16.176 9.95278 0)
(-14.9813 6.71637 0)
(-13.6966 3.87545 0)
(-12.3365 1.44531 0)
(-10.9199 -0.588223 0)
(-9.48942 -2.26202 0)
(-8.09682 -3.6355 0)
(-6.80251 -4.79796 0)
(-5.65791 -5.83413 0)
(-4.70715 -6.78821 0)
(-3.97208 -7.77733 0)
(-3.40877 -8.89117 0)
(-3.01136 -10.2181 0)
(-2.78369 -11.8257 0)
(-2.72449 -13.7721 0)
(29.064 40.2878 0)
(27.8416 52.8278 0)
(26.2523 64.4746 0)
(24.212 74.8806 0)
(21.6316 83.881 0)
(18.4448 91.406 0)
(14.6359 97.3968 0)
(10.2556 101.749 0)
(5.41096 104.283 0)
(0.311914 104.616 0)
(-4.77242 103.289 0)
(-9.6755 100.277 0)
(-14.2361 95.6674 0)
(-18.3076 89.6429 0)
(-21.7808 82.4651 0)
(-24.5864 74.4456 0)
(-26.6955 65.9156 0)
(-28.1165 57.198 0)
(-28.8892 48.5864 0)
(-29.0764 40.3293 0)
(-28.7516 32.6227 0)
(-27.9897 25.6134 0)
(-26.859 19.4063 0)
(-25.4135 14.0768 0)
(-23.6978 9.68159 0)
(-21.7596 6.25737 0)
(-19.6634 3.80482 0)
(-17.4981 2.27112 0)
(-15.3553 1.55634 0)
(-13.2899 1.50898 0)
(-11.3186 1.99552 0)
(-9.4018 2.95795 0)
(-7.51604 4.45592 0)
(-5.6112 6.27432 0)
(-3.8291 7.90684 0)
(-2.23392 9.20099 0)
(-0.800531 9.76866 0)
(0.404439 9.41148 0)
(1.37054 8.20991 0)
(1.99336 6.17637 0)
(3.07326 3.19332 0)
(4.17669 -0.490762 0)
(5.54713 -5.56444 0)
(6.50683 -11.2885 0)
(7.29837 -17.5429 0)
(8.07086 -24.2186 0)
(8.70686 -31.2475 0)
(9.12743 -38.5778 0)
(9.29213 -46.1651 0)
(9.16301 -53.9457 0)
(8.71764 -61.8168 0)
(7.95042 -69.6221 0)
(6.8724 -77.1491 0)
(5.50692 -84.1419 0)
(3.88897 -90.3031 0)
(2.06814 -95.3271 0)
(0.109508 -98.9006 0)
(-1.85955 -100.564 0)
(-3.7046 -100.037 0)
(-5.37699 -97.9483 0)
(-6.8081 -94.3504 0)
(-7.96368 -89.413 0)
(-8.82777 -83.3364 0)
(-9.39672 -76.354 0)
(-9.68822 -68.7414 0)
(-9.73329 -60.7503 0)
(-9.55577 -52.5961 0)
(-9.188 -44.5115 0)
(-8.6575 -36.6657 0)
(-7.95835 -29.1926 0)
(-7.09813 -22.2553 0)
(-6.06371 -15.9713 0)
(-4.80487 -10.4124 0)
(-3.40906 -5.61908 0)
(-2.21038 -1.72073 0)
(-0.82707 2.18852 0)
(1.30823 5.74169 0)
(3.29507 7.72255 0)
(5.2694 8.74301 0)
(7.2266 9.02802 0)
(9.10908 8.80517 0)
(10.875 8.31903 0)
(12.4832 7.81503 0)
(13.9018 7.49023 0)
(15.1304 7.47982 0)
(16.1927 7.88956 0)
(17.1125 8.78856 0)
(17.9087 10.1897 0)
(18.5994 12.0562 0)
(19.1966 14.3237 0)
(19.699 16.9213 0)
(20.0884 19.7939 0)
(20.3551 22.9316 0)
(20.4578 26.3061 0)
(20.3636 29.9335 0)
(20.0342 33.8342 0)
(19.4325 38.014 0)
(18.5305 42.4543 0)
(17.3114 47.1022 0)
(15.7706 51.8687 0)
(13.9167 56.6303 0)
(11.7714 61.237 0)
(9.36865 65.5219 0)
(6.75367 69.3125 0)
(3.98268 72.4427 0)
(1.12045 74.7606 0)
(-1.75246 76.1194 0)
(-4.5207 76.3053 0)
(-7.10641 75.3853 0)
(-9.49076 73.5784 0)
(-11.6272 70.9136 0)
(-13.4795 67.4633 0)
(-15.0266 63.3282 0)
(-16.2572 58.6302 0)
(-17.169 53.5033 0)
(-17.7663 48.0844 0)
(-18.0571 42.5093 0)
(-18.0548 36.914 0)
(-17.7779 31.4222 0)
(-17.2499 26.1422 0)
(-16.5021 21.1664 0)
(-15.5721 16.5643 0)
(-14.5007 12.3777 0)
(-13.3278 8.62214 0)
(-12.0772 5.28884 0)
(-10.7394 2.35341 0)
(-9.29906 -0.163631 0)
(-7.78492 -2.23599 0)
(-6.26061 -3.90599 0)
(-4.78398 -5.23768 0)
(-3.38974 -6.259 0)
(-2.12095 -7.04997 0)
(-1.16367 -7.71686 0)
(-0.34515 -8.54263 0)
(0.285401 -9.48117 0)
(0.739931 -10.6185 0)
(1.02968 -12.0317 0)
(1.15192 -13.7848 0)
(27.6493 41.2409 0)
(26.8129 54.1947 0)
(25.5565 66.3418 0)
(23.7735 77.3522 0)
(21.3692 87.0448 0)
(18.2843 95.3032 0)
(14.5184 101.997 0)
(10.1399 106.946 0)
(5.28047 109.905 0)
(0.169805 110.365 0)
(-4.90419 108.915 0)
(-9.76418 105.586 0)
(-14.2418 100.483 0)
(-18.1908 93.8228 0)
(-21.5052 85.9109 0)
(-24.1211 77.1056 0)
(-26.0163 67.7832 0)
(-27.2078 58.3069 0)
(-27.7471 49.0014 0)
(-27.7084 40.1344 0)
(-27.1789 31.9075 0)
(-26.2435 24.463 0)
(-24.98 17.8911 0)
(-23.44 12.2473 0)
(-21.6503 7.57654 0)
(-19.6377 3.92857 0)
(-17.4485 1.33487 0)
(-15.1571 -0.237229 0)
(-12.8557 -0.90458 0)
(-10.6299 -0.831007 0)
(-8.52342 -0.225945 0)
(-6.5386 0.725787 0)
(-4.67736 2.12376 0)
(-2.5801 4.11109 0)
(-0.742207 6.02332 0)
(0.96748 7.43723 0)
(2.57287 8.23782 0)
(3.92052 8.10358 0)
(5.02599 7.0085 0)
(6.07849 5.04838 0)
(7.08851 2.10887 0)
(8.14915 -1.73135 0)
(9.31087 -6.6854 0)
(10.3127 -12.381 0)
(11.2045 -18.5226 0)
(12.0026 -25.0326 0)
(12.6332 -31.8424 0)
(13.0323 -38.8936 0)
(13.1466 -46.1496 0)
(12.9291 -53.5613 0)
(12.3476 -61.043 0)
(11.3878 -68.4572 0)
(10.054 -75.6103 0)
(8.36749 -82.2626 0)
(6.36595 -88.1344 0)
(4.10608 -92.9367 0)
(1.66146 -96.3803 0)
(-0.844387 -98.0893 0)
(-3.25825 -97.7128 0)
(-5.50857 -95.8544 0)
(-7.51963 -92.5527 0)
(-9.24241 -87.9452 0)
(-10.6477 -82.2175 0)
(-11.7207 -75.5862 0)
(-12.4633 -68.3022 0)
(-12.8935 -60.6141 0)
(-13.0271 -52.7414 0)
(-12.8852 -44.9115 0)
(-12.4892 -37.3104 0)
(-11.8464 -30.0856 0)
(-10.9732 -23.3778 0)
(-9.89451 -17.2847 0)
(-8.63661 -11.8623 0)
(-7.26667 -7.18803 0)
(-5.92095 -3.24755 0)
(-4.56438 0.399067 0)
(-2.72366 3.4414 0)
(-0.499293 5.39714 0)
(1.63387 6.44724 0)
(3.66936 6.81671 0)
(5.59353 6.72389 0)
(7.3961 6.40646 0)
(9.04479 6.09538 0)
(10.5125 5.97258 0)
(11.8111 6.13997 0)
(12.9671 6.70611 0)
(13.9909 7.75064 0)
(14.8885 9.28515 0)
(15.6714 11.2717 0)
(16.3451 13.6499 0)
(16.9079 16.3662 0)
(17.365 19.3953 0)
(17.6794 22.6934 0)
(17.8265 26.2706 0)
(17.7713 30.1461 0)
(17.4758 34.3345 0)
(16.9096 38.8346 0)
(16.0513 43.6168 0)
(14.8904 48.6154 0)
(13.428 53.7277 0)
(11.677 58.8156 0)
(9.66263 63.7157 0)
(7.42075 68.2492 0)
(4.99662 72.2314 0)
(2.44535 75.4832 0)
(-0.16867 77.8474 0)
(-2.76198 79.1527 0)
(-5.21221 79.1308 0)
(-7.46283 78.0069 0)
(-9.5005 75.9376 0)
(-11.2836 72.9702 0)
(-12.7829 69.1903 0)
(-13.9853 64.7114 0)
(-14.8882 59.666 0)
(-15.4977 54.1963 0)
(-15.8244 48.4437 0)
(-15.8783 42.5465 0)
(-15.6725 36.6462 0)
(-15.2213 30.8715 0)
(-14.5397 25.3366 0)
(-13.6527 20.1447 0)
(-12.602 15.3727 0)
(-11.4375 11.064 0)
(-10.208 7.23069 0)
(-8.94078 3.82878 0)
(-7.5802 0.783964 0)
(-6.06198 -1.84499 0)
(-4.43509 -4.04786 0)
(-2.76562 -5.69673 0)
(-1.25245 -6.91049 0)
(0.102975 -7.78357 0)
(1.29322 -8.34558 0)
(2.39332 -8.79793 0)
(3.23506 -9.31184 0)
(3.92417 -10.0635 0)
(4.43882 -11.0412 0)
(4.78156 -12.2891 0)
(4.9574 -13.8642 0)
(22.7586 79.5758 0)
(20.555 90.0347 0)
(17.6235 99.0865 0)
(13.9763 106.526 0)
(9.69552 112.097 0)
(4.92955 115.486 0)
(-0.07473 116.057 0)
(-5.01548 114.45 0)
(-9.71333 110.766 0)
(-13.999 105.13 0)
(-17.7313 97.8001 0)
(-20.8103 89.1237 0)
(-23.1775 79.5089 0)
(-24.8159 69.3783 0)
(-25.749 59.1375 0)
(-26.0355 49.1443 0)
(-25.7589 39.6872 0)
(-25.019 30.9741 0)
(-23.9134 23.1384 0)
(-22.5333 16.2497 0)
(-20.9309 10.3325 0)
(-19.1084 5.40575 0)
(-17.0576 1.53415 0)
(-14.8235 -1.22605 0)
(-12.4828 -2.8837 0)
(-10.1249 -3.53999 0)
(-7.82022 -3.36713 0)
(-5.58751 -2.56222 0)
(-3.43629 -1.36235 0)
(-1.67333 0.027688 0)
(0.219351 1.95938 0)
(2.31746 3.79725 0)
(4.15073 5.45259 0)
(5.84019 6.47777 0)
(7.34351 6.65202 0)
(8.61673 5.79739 0)
(9.72811 3.85077 0)
(10.7763 0.895729 0)
(11.8272 -3.00972 0)
(12.8732 -7.87304 0)
(13.8401 -13.4368 0)
(14.7099 -19.4649 0)
(15.4678 -25.8191 0)
(16.0576 -32.4021 0)
(16.4101 -39.1567 0)
(16.4612 -46.0525 0)
(16.1552 -53.0545 0)
(15.4509 -60.0955 0)
(14.3257 -67.0592 0)
(12.778 -73.7736 0)
(10.8273 -80.0185 0)
(8.51203 -85.5392 0)
(5.89151 -90.0682 0)
(3.04474 -93.3365 0)
(0.0986033 -95.0382 0)
(-2.78726 -94.7933 0)
(-5.53079 -93.1547 0)
(-8.04305 -90.1504 0)
(-10.2618 -85.8909 0)
(-12.1449 -80.5434 0)
(-13.6655 -74.3084 0)
(-14.8127 -67.4178 0)
(-15.591 -60.109 0)
(-16.0103 -52.603 0)
(-16.0873 -45.1151 0)
(-15.8467 -37.8317 0)
(-15.3124 -30.9005 0)
(-14.5159 -24.4477 0)
(-13.4965 -18.5656 0)
(-12.2926 -13.3083 0)
(-10.9556 -8.71192 0)
(-9.53994 -4.76912 0)
(-7.97103 -1.45029 0)
(-6.12051 1.14043 0)
(-4.07176 2.92572 0)
(-1.9756 4.04249 0)
(0.137467 4.60096 0)
(2.17197 4.62088 0)
(3.96459 4.43166 0)
(5.54989 4.31242 0)
(7.03689 4.40326 0)
(8.42807 4.73351 0)
(9.67563 5.44857 0)
(10.7635 6.64228 0)
(11.6991 8.31158 0)
(12.5037 10.4165 0)
(13.2083 12.9225 0)
(13.8145 15.78 0)
(14.295 18.9421 0)
(14.635 22.4123 0)
(14.8032 26.2026 0)
(14.7643 30.329 0)
(14.488 34.8019 0)
(13.9511 39.612 0)
(13.1394 44.7183 0)
(12.0486 50.043 0)
(10.6853 55.4702 0)
(9.06772 60.8501 0)
(7.22343 66.0066 0)
(5.18855 70.7504 0)
(3.00823 74.8877 0)
(0.734553 78.2293 0)
(-1.57123 80.6022 0)
(-3.81757 81.8158 0)
(-5.88264 81.5535 0)
(-7.74177 80.2119 0)
(-9.37658 77.8718 0)
(-10.7534 74.6009 0)
(-11.8519 70.5002 0)
(-12.6672 65.6947 0)
(-13.2074 60.331 0)
(-13.4873 54.5563 0)
(-13.5241 48.5133 0)
(-13.3328 42.3377 0)
(-12.933 36.1758 0)
(-12.3342 30.1507 0)
(-11.5321 24.3793 0)
(-10.5352 18.9881 0)
(-9.37227 14.0731 0)
(-8.10235 9.6735 0)
(-6.82966 5.79993 0)
(-5.62468 2.4075 0)
(-4.30591 -0.913595 0)
(-2.53109 -3.78482 0)
(-0.728065 -5.89983 0)
(0.874455 -7.4056 0)
(2.32694 -8.41093 0)
(3.60132 -9.07108 0)
(4.70224 -9.56073 0)
(5.75646 -9.99146 0)
(6.72778 -10.358 0)
(7.49868 -10.8433 0)
(8.06555 -11.5677 0)
(8.43671 -12.5908 0)
(8.63055 -13.9675 0)
(10.664 -0.763651 0)
(11.6667 -0.736484 0)
(12.6384 -0.662026 0)
(13.512 -0.545405 0)
(14.2004 -0.393118 0)
(14.6178 -0.217905 0)
(14.6682 -0.0543003 0)
(14.4323 0.103344 0)
(13.8872 0.3033 0)
(12.9414 0.537887 0)
(11.5979 0.782398 0)
(9.87383 1.02317 0)
(7.77903 1.24729 0)
(5.3101 1.42698 0)
(2.47412 1.54179 0)
(-0.679195 1.57019 0)
(-3.52075 1.64525 0)
(-6.12201 1.4976 0)
(-8.69644 1.31723 0)
(-11.0211 1.08867 0)
(-12.9625 0.836306 0)
(-14.4382 0.585204 0)
(-15.4256 0.353547 0)
(-15.9347 0.153941 0)
(-16.0138 -0.00610922 0)
(-15.7529 -0.127527 0)
(-15.1917 -0.205604 0)
(-14.4183 -0.236443 0)
(-13.5735 -0.238059 0)
(-12.6685 -0.23252 0)
(-11.7524 -0.230809 0)
(-10.854 -0.238844 0)
(-9.99284 -0.250932 0)
(-9.16734 -0.301567 0)
(-8.36094 -0.370056 0)
(-7.5629 -0.449677 0)
(-6.74174 -0.546396 0)
(-5.83769 -0.632446 0)
(-4.75377 -0.669927 0)
(-3.42199 -0.70071 0)
(-1.85813 -0.871151 0)
(0.0877195 -1.28374 0)
(2.32425 -1.36508 0)
(4.92798 -1.58674 0)
(7.86931 -1.75752 0)
(11.0277 -1.84324 0)
(14.2599 -1.80211 0)
(17.3351 -1.60553 0)
(19.9638 -1.26795 0)
(21.8812 -0.843178 0)
(22.8908 -0.377977 0)
(22.9355 0.0632815 0)
(22.069 0.435642 0)
(20.6308 0.801459 0)
(18.4633 1.159 0)
(15.7255 1.45309 0)
(12.5146 1.65721 0)
(8.92099 1.75412 0)
(5.3911 1.8642 0)
(2.21745 1.77694 0)
(-0.813241 1.4858 0)
(-3.64145 1.27503 0)
(-6.05583 1.03592 0)
(-7.98211 0.805491 0)
(-9.397 0.591722 0)
(-10.3293 0.416543 0)
(-10.8539 0.278881 0)
(-11.0534 0.160485 0)
(-10.9821 0.0664377 0)
(-10.6941 -0.00901677 0)
(-10.2613 -0.0825786 0)
(-9.68814 -0.163353 0)
(-8.99691 -0.242723 0)
(-8.21547 -0.307696 0)
(-7.37535 -0.358642 0)
(-6.49553 -0.397477 0)
(-5.57747 -0.416719 0)
(-4.59629 -0.390997 0)
(-3.54466 -0.468003 0)
(-2.55665 -0.630485 0)
(-1.52186 -0.664538 0)
(-0.533664 -0.582059 0)
(0.478595 -0.570575 0)
(1.46508 -0.570178 0)
(2.39609 -0.528502 0)
(3.22732 -0.47458 0)
(3.94491 -0.418354 0)
(4.5672 -0.369187 0)
(5.10381 -0.305533 0)
(5.53512 -0.232602 0)
(5.84677 -0.160338 0)
(6.03345 -0.0885659 0)
(6.08137 -0.0121575 0)
(5.97928 0.0707809 0)
(5.70767 0.15261 0)
(5.30162 0.228066 0)
(4.75659 0.294381 0)
(4.1029 0.346046 0)
(3.3731 0.382145 0)
(2.59399 0.404712 0)
(1.77676 0.414664 0)
(0.915453 0.424249 0)
(0.132188 0.500847 0)
(-0.587225 0.463628 0)
(-1.2993 0.414172 0)
(-1.9883 0.387268 0)
(-2.63305 0.357498 0)
(-3.23002 0.328191 0)
(-3.77126 0.295096 0)
(-4.24292 0.256776 0)
(-4.63191 0.214996 0)
(-4.93177 0.173135 0)
(-5.14304 0.132977 0)
(-5.27374 0.0935681 0)
(-5.32554 0.0570975 0)
(-5.32621 0.0242757 0)
(-5.28101 -0.00648197 0)
(-5.20378 -0.03461 0)
(-5.10228 -0.062642 0)
(-4.97247 -0.0942411 0)
(-4.80139 -0.128208 0)
(-4.5772 -0.161991 0)
(-4.29842 -0.188964 0)
(-3.96386 -0.220369 0)
(-3.56739 -0.246097 0)
(-3.09973 -0.256021 0)
(-2.56047 -0.270835 0)
(-1.96389 -0.292883 0)
(-1.37538 -0.377544 0)
(-0.762148 -0.360107 0)
(-0.0977787 -0.33925 0)
(0.599557 -0.337184 0)
(1.2745 -0.331572 0)
(1.91066 -0.310521 0)
(2.48665 -0.279998 0)
(2.98388 -0.244131 0)
(3.40201 -0.213129 0)
(3.75125 -0.181997 0)
(4.03313 -0.1479 0)
(16.3138 -1.44349 0)
(16.6846 -1.35676 0)
(17.0469 -1.21661 0)
(17.2991 -0.951577 0)
(17.3098 -0.537012 0)
(16.9681 0.0104756 0)
(16.2325 0.649228 0)
(14.8419 1.29104 0)
(12.895 1.90737 0)
(10.6101 2.49461 0)
(8.12755 3.01957 0)
(5.56688 3.45673 0)
(3.00657 3.82894 0)
(0.486932 4.21488 0)
(-2.04181 4.53092 0)
(-4.30334 4.68576 0)
(-7.03842 4.85635 0)
(-9.95327 4.66843 0)
(-12.5491 4.23476 0)
(-14.8445 3.57501 0)
(-16.6999 2.75214 0)
(-18.0228 1.87022 0)
(-18.8004 1.01617 0)
(-19.0999 0.234394 0)
(-18.9577 -0.449433 0)
(-18.4633 -1.01162 0)
(-17.7158 -1.44486 0)
(-16.7565 -1.73971 0)
(-15.6303 -1.90987 0)
(-14.3807 -1.98375 0)
(-13.0306 -1.97623 0)
(-11.596 -1.90339 0)
(-10.1208 -1.7914 0)
(-8.58729 -1.64645 0)
(-6.97742 -1.51058 0)
(-5.31779 -1.39787 0)
(-3.59633 -1.33444 0)
(-1.86005 -1.42213 0)
(0.00159784 -1.8906 0)
(2.1254 -2.35056 0)
(4.14935 -2.97143 0)
(6.4113 -3.80997 0)
(8.90617 -4.51035 0)
(11.4815 -5.03547 0)
(14.2074 -5.35164 0)
(17.0612 -5.44283 0)
(19.9253 -5.20782 0)
(22.5775 -4.51776 0)
(24.6274 -3.33713 0)
(25.7433 -1.85762 0)
(25.7882 -0.245743 0)
(24.9206 1.29236 0)
(23.1715 2.65437 0)
(20.4106 3.79675 0)
(17.077 4.67343 0)
(13.5199 5.27857 0)
(9.92598 5.6843 0)
(6.39134 5.93876 0)
(2.88728 5.79822 0)
(-0.884365 5.60237 0)
(-4.48631 5.0845 0)
(-7.69287 4.37945 0)
(-10.5121 3.56143 0)
(-12.8387 2.67093 0)
(-14.5486 1.75791 0)
(-15.6576 0.956132 0)
(-16.1986 0.335736 0)
(-16.3255 -0.185421 0)
(-16.0607 -0.609863 0)
(-15.4562 -0.925377 0)
(-14.5525 -1.15355 0)
(-13.369 -1.33445 0)
(-11.9371 -1.46423 0)
(-10.3322 -1.52859 0)
(-8.64772 -1.54961 0)
(-6.95933 -1.55711 0)
(-5.34748 -1.59941 0)
(-3.78937 -1.79997 0)
(-2.13433 -1.76376 0)
(-0.536331 -1.75333 0)
(1.07611 -1.7967 0)
(2.49763 -1.78197 0)
(3.67467 -1.72951 0)
(4.70361 -1.6388 0)
(5.6227 -1.48611 0)
(6.36108 -1.25007 0)
(6.90128 -0.998053 0)
(7.29604 -0.859365 0)
(7.57413 -0.68253 0)
(7.7012 -0.463348 0)
(7.69514 -0.248361 0)
(7.56497 -0.028663 0)
(7.30719 0.20587 0)
(6.89674 0.459341 0)
(6.30891 0.717312 0)
(5.52014 0.9425 0)
(4.60219 1.12051 0)
(3.61757 1.24368 0)
(2.61515 1.31078 0)
(1.63071 1.33481 0)
(0.690037 1.35208 0)
(-0.219254 1.3846 0)
(-1.15913 1.34191 0)
(-2.11492 1.29132 0)
(-2.95899 1.20527 0)
(-3.71402 1.10855 0)
(-4.41598 1.0111 0)
(-5.06812 0.904005 0)
(-5.65623 0.775346 0)
(-6.15592 0.623919 0)
(-6.54353 0.460176 0)
(-6.80775 0.297475 0)
(-6.93931 0.146704 0)
(-6.94508 0.017442 0)
(-6.85026 -0.0828051 0)
(-6.66279 -0.155804 0)
(-6.39847 -0.203106 0)
(-6.07724 -0.217426 0)
(-5.71553 -0.216212 0)
(-5.31176 -0.243287 0)
(-4.85372 -0.30421 0)
(-4.33362 -0.397234 0)
(-3.77199 -0.492462 0)
(-3.17242 -0.56699 0)
(-2.54086 -0.66103 0)
(-1.87026 -0.821801 0)
(-1.12466 -0.911992 0)
(-0.40026 -1.02997 0)
(0.345671 -1.10788 0)
(1.12095 -1.10289 0)
(1.81801 -1.27705 0)
(2.48187 -1.22763 0)
(3.12796 -1.15956 0)
(3.71875 -1.07035 0)
(4.21007 -0.930901 0)
(4.58276 -0.748152 0)
(4.84194 -0.606256 0)
(5.02899 -0.483494 0)
(5.14955 -0.347547 0)
(17.6154 -1.58798 0)
(17.3207 -1.7132 0)
(16.9932 -1.61151 0)
(16.5545 -1.15723 0)
(15.9169 -0.370708 0)
(15.0147 0.661207 0)
(13.7898 1.97359 0)
(12.2473 3.30368 0)
(10.4794 4.40894 0)
(8.56219 5.22339 0)
(6.54854 5.78392 0)
(4.48681 6.22107 0)
(2.37093 6.69529 0)
(0.0726571 7.1524 0)
(-2.33643 7.47054 0)
(-4.8113 7.735 0)
(-7.26676 7.66122 0)
(-9.67228 7.43502 0)
(-11.7783 6.83191 0)
(-13.4739 5.80571 0)
(-14.6609 4.46402 0)
(-15.3059 2.99949 0)
(-15.4442 1.6016 0)
(-15.1285 0.387941 0)
(-14.5471 -0.607345 0)
(-13.7395 -1.3783 0)
(-12.7705 -1.93594 0)
(-11.7057 -2.31444 0)
(-10.6085 -2.56468 0)
(-9.53693 -2.748 0)
(-8.53024 -2.93669 0)
(-7.59456 -3.16223 0)
(-6.79712 -3.20452 0)
(-5.91519 -3.60812 0)
(-5.01874 -3.94651 0)
(-4.01827 -4.27781 0)
(-2.92684 -4.67156 0)
(-1.66909 -5.14476 0)
(-0.217372 -5.54668 0)
(1.56176 -5.82069 0)
(3.74774 -6.00869 0)
(6.10659 -6.13687 0)
(8.46256 -6.37874 0)
(10.6917 -6.76097 0)
(12.804 -7.25378 0)
(14.9248 -7.6805 0)
(17.126 -7.67856 0)
(19.306 -6.8709 0)
(21.1771 -5.09448 0)
(22.4314 -2.58026 0)
(22.9586 0.126011 0)
(22.64 2.57714 0)
(21.7199 4.83453 0)
(20.1669 6.84315 0)
(18.0681 8.24187 0)
(15.5625 9.1552 0)
(12.6419 9.77585 0)
(9.33107 10.2019 0)
(6.01461 10.4578 0)
(2.61398 10.1199 0)
(-1.07512 9.36838 0)
(-4.50725 8.26913 0)
(-7.61976 6.92901 0)
(-10.3613 5.39784 0)
(-12.6049 3.79113 0)
(-14.269 2.29276 0)
(-15.5277 1.0385 0)
(-16.5331 -0.0211911 0)
(-17.2162 -0.859287 0)
(-17.529 -1.5863 0)
(-17.5607 -2.28705 0)
(-17.2335 -3.0027 0)
(-16.4458 -3.64098 0)
(-15.2256 -4.02686 0)
(-13.6521 -4.18459 0)
(-11.7841 -4.17111 0)
(-9.71589 -4.06623 0)
(-7.60624 -4.00512 0)
(-5.53007 -4.0858 0)
(-3.3577 -4.18264 0)
(-1.16323 -3.90067 0)
(0.81292 -3.4835 0)
(2.59507 -2.84465 0)
(4.21942 -2.65174 0)
(5.68479 -2.19815 0)
(6.86835 -1.80498 0)
(7.60561 -1.46046 0)
(8.10765 -1.13524 0)
(8.59682 -0.791182 0)
(8.87694 -0.416933 0)
(8.87 -0.105936 0)
(8.72969 0.189787 0)
(8.45577 0.555767 0)
(8.02973 1.02344 0)
(7.41442 1.57003 0)
(6.61951 2.03115 0)
(5.70854 2.33876 0)
(4.7198 2.50998 0)
(3.69773 2.57036 0)
(2.68074 2.55914 0)
(1.69592 2.53158 0)
(0.757159 2.53068 0)
(-0.138627 2.49231 0)
(-0.9626 2.36745 0)
(-1.75397 2.1793 0)
(-2.50483 2.01926 0)
(-3.19848 1.89388 0)
(-3.83052 1.76673 0)
(-4.40651 1.59268 0)
(-4.92378 1.35105 0)
(-5.37117 1.05357 0)
(-5.73951 0.730747 0)
(-6.02545 0.412922 0)
(-6.24126 0.120506 0)
(-6.38997 -0.138332 0)
(-6.45892 -0.362312 0)
(-6.47596 -0.559756 0)
(-6.46498 -0.746275 0)
(-6.45506 -0.938244 0)
(-6.42701 -1.13108 0)
(-6.31426 -1.32454 0)
(-6.04804 -1.49103 0)
(-5.63863 -1.53471 0)
(-5.05572 -1.69412 0)
(-4.36334 -1.83174 0)
(-3.6247 -1.87307 0)
(-2.81869 -1.94552 0)
(-1.83701 -2.06975 0)
(-0.727194 -2.01609 0)
(0.331648 -1.94899 0)
(1.32924 -1.78829 0)
(2.26499 -1.7324 0)
(3.1422 -1.62347 0)
(3.94886 -1.38249 0)
(4.63295 -1.12483 0)
(5.08517 -0.889764 0)
(5.32443 -0.68237 0)
(5.53766 -0.500589 0)
(5.71266 -0.330289 0)
(18.7108 -0.700159 0)
(18.2175 -0.32012 0)
(17.1921 0.104161 0)
(15.7555 0.655127 0)
(14.0459 1.52415 0)
(12.2952 2.60763 0)
(10.4668 3.79738 0)
(8.44228 5.03536 0)
(6.34617 6.18876 0)
(4.22171 7.16717 0)
(1.99364 8.00724 0)
(-0.430438 8.57505 0)
(-2.90947 8.94648 0)
(-5.33695 9.36827 0)
(-7.55646 9.82869 0)
(-9.85875 10.1784 0)
(-11.9968 10.0957 0)
(-13.7006 9.60436 0)
(-15.0153 8.60126 0)
(-15.7288 6.95342 0)
(-16.0041 4.94611 0)
(-15.9064 2.85916 0)
(-15.4949 0.929911 0)
(-14.8512 -0.693611 0)
(-14.0031 -2.05501 0)
(-12.9281 -3.15405 0)
(-11.6147 -3.97794 0)
(-10.0616 -4.52418 0)
(-8.27949 -4.79537 0)
(-6.29832 -4.82086 0)
(-4.17829 -4.64333 0)
(-2.0355 -4.33152 0)
(0.0283817 -4.04575 0)
(1.9431 -3.88282 0)
(3.58897 -3.70435 0)
(4.84049 -3.43164 0)
(5.7931 -3.36592 0)
(6.44505 -3.75191 0)
(6.47816 -4.74265 0)
(6.11855 -6.05296 0)
(5.69035 -7.5496 0)
(5.32535 -8.9393 0)
(5.10961 -9.91426 0)
(5.11385 -10.4524 0)
(5.60246 -10.7693 0)
(6.76962 -10.9579 0)
(8.72796 -10.8099 0)
(11.2723 -9.86239 0)
(13.8903 -7.19647 0)
(15.9965 -4.35594 0)
(17.4101 -0.643077 0)
(18.5875 2.81076 0)
(19.8063 5.91911 0)
(20.3909 8.56391 0)
(19.8226 10.5741 0)
(18.3484 11.899 0)
(16.4643 12.8355 0)
(14.3183 13.4465 0)
(11.4716 13.7918 0)
(8.32605 13.5147 0)
(5.62636 12.7853 0)
(2.93599 11.6615 0)
(0.228642 10.2722 0)
(-2.38545 8.61496 0)
(-4.89999 6.30118 0)
(-7.03031 4.24061 0)
(-8.72787 3.17625 0)
(-10.0791 1.8138 0)
(-11.2963 0.381293 0)
(-12.5119 -0.723581 0)
(-13.7429 -1.64159 0)
(-14.8256 -2.71284 0)
(-15.462 -3.76646 0)
(-15.6561 -4.66975 0)
(-15.4973 -5.39207 0)
(-15.028 -5.94616 0)
(-14.181 -6.32597 0)
(-12.9737 -6.56363 0)
(-11.489 -6.66698 0)
(-9.90509 -6.59593 0)
(-8.25102 -6.29308 0)
(-6.47049 -5.86955 0)
(-4.54575 -5.53804 0)
(-2.47043 -5.30597 0)
(-0.410314 -4.82761 0)
(1.46873 -3.75136 0)
(3.23235 -2.16059 0)
(4.84594 -2.2565 0)
(6.17664 -1.64289 0)
(7.02774 -0.814537 0)
(7.40728 -0.0767526 0)
(7.56533 0.544434 0)
(7.65186 1.13125 0)
(7.57839 1.78277 0)
(7.19958 2.40626 0)
(6.52358 2.93895 0)
(5.68399 3.34527 0)
(4.7503 3.58614 0)
(3.75552 3.66877 0)
(2.73897 3.62999 0)
(1.76017 3.52801 0)
(0.897538 3.39572 0)
(0.0499005 3.25981 0)
(-0.739623 3.09625 0)
(-1.42201 2.90594 0)
(-2.04589 2.6808 0)
(-2.60402 2.44486 0)
(-3.0633 2.21366 0)
(-3.39663 1.95532 0)
(-3.60218 1.64963 0)
(-3.71237 1.31244 0)
(-3.74757 0.962167 0)
(-3.71147 0.623867 0)
(-3.6138 0.321365 0)
(-3.47099 0.0608684 0)
(-3.30268 -0.157847 0)
(-3.12774 -0.321032 0)
(-2.99393 -0.316633 0)
(-2.91556 -0.174271 0)
(-2.8718 -0.285567 0)
(-2.90153 -0.514318 0)
(-2.97955 -0.982822 0)
(-3.07113 -1.47002 0)
(-3.15011 -1.77859 0)
(-3.25814 -2.12898 0)
(-3.36079 -2.52453 0)
(-3.40501 -2.92566 0)
(-3.4136 -3.25432 0)
(-3.35737 -3.43461 0)
(-3.16088 -3.4741 0)
(-2.75362 -3.44848 0)
(-2.1345 -3.36161 0)
(-1.36972 -3.2147 0)
(-0.482707 -2.99032 0)
(0.521593 -2.5579 0)
(1.57284 -1.55151 0)
(2.59483 -1.21015 0)
(3.55831 -1.01347 0)
(4.44137 -0.721542 0)
(7.13762 -1.80069 0)
(7.95491 -0.653287 0)
(8.13762 0.530446 0)
(7.94564 1.82271 0)
(7.50447 3.09365 0)
(6.69049 3.84418 0)
(5.48798 6.11328 0)
(4.03695 7.80977 0)
(2.32296 9.03804 0)
(0.37381 10.0525 0)
(-1.70936 10.8825 0)
(-3.81387 11.5344 0)
(-5.96523 12.0767 0)
(-8.34449 12.5544 0)
(-10.434 12.7107 0)
(-12.2644 12.476 0)
(-13.8552 12.0533 0)
(-14.8521 10.9905 0)
(-15.394 9.32635 0)
(-15.6467 7.24859 0)
(-15.709 4.9623 0)
(-15.6819 2.65608 0)
(-15.6882 0.561 0)
(-15.8137 -1.1498 0)
(-15.9335 -2.63109 0)
(-15.9732 -3.90193 0)
(-15.9255 -4.94799 0)
(-15.7731 -5.80046 0)
(-15.4787 -6.50126 0)
(-14.9101 -7.04601 0)
(-14.0193 -7.44865 0)
(-12.7088 -7.62666 0)
(-10.9908 -7.58656 0)
(-8.93994 -7.4486 0)
(-6.59134 -7.32094 0)
(-3.83275 -7.3086 0)
(-0.560691 -7.21965 0)
(2.95811 -6.85039 0)
(6.75687 -6.47627 0)
(10.2896 -6.03011 0)
(12.8894 -5.63972 0)
(14.3602 -5.44679 0)
(14.464 -5.58317 0)
(13.7435 -6.41024 0)
(12.4149 -8.00956 0)
(10.7834 -10.1823 0)
(9.0756 -12.0152 0)
(7.43576 -12.3334 0)
(6.18487 -10.549 0)
(5.96127 -7.01013 0)
(6.91764 -3.19041 0)
(8.5058 -0.915529 0)
(10.9195 1.55189 0)
(13.5428 6.45301 0)
(15.9596 9.96669 0)
(17.7829 12.4689 0)
(18.8407 14.4519 0)
(19.2081 16.048 0)
(18.696 16.7219 0)
(17.4613 16.7162 0)
(15.6743 15.979 0)
(13.588 14.7473 0)
(11.3567 13.1588 0)
(9.08762 11.2315 0)
(6.66601 8.96062 0)
(3.98351 6.5213 0)
(1.43417 4.24509 0)
(-0.47443 2.84929 0)
(-2.49157 2.16134 0)
(-4.25276 1.35299 0)
(-6.00362 0.5805 0)
(-7.68358 -0.809783 0)
(-9.05975 -2.84728 0)
(-10.1705 -3.97455 0)
(-11.0956 -4.91751 0)
(-11.7792 -5.71996 0)
(-12.2069 -6.40876 0)
(-12.3863 -7.02641 0)
(-12.3156 -7.53349 0)
(-11.9296 -7.81545 0)
(-11.2985 -7.87934 0)
(-10.3845 -7.74715 0)
(-9.19963 -7.50319 0)
(-7.9161 -7.1198 0)
(-6.6677 -6.48191 0)
(-5.39002 -5.69014 0)
(-3.8283 -5.0342 0)
(-2.19324 -4.35677 0)
(-0.945349 -3.36479 0)
(0.30621 -1.71053 0)
(1.24685 -0.834673 0)
(1.95076 -0.254378 0)
(2.65868 0.37162 0)
(3.26085 1.13718 0)
(3.56034 2.6761 0)
(3.60259 3.63214 0)
(3.44524 4.22195 0)
(3.12601 4.63223 0)
(2.62244 4.79485 0)
(2.00546 4.79653 0)
(1.29835 4.6909 0)
(0.535005 4.50906 0)
(-0.271171 4.25299 0)
(-1.09042 3.97476 0)
(-1.91318 3.69353 0)
(-2.7384 3.41966 0)
(-3.51775 3.10985 0)
(-4.1909 2.73017 0)
(-4.74402 2.28704 0)
(-5.20064 1.80675 0)
(-5.57119 1.31676 0)
(-5.838 0.823413 0)
(-5.9988 0.353544 0)
(-6.05795 -0.0675398 0)
(-6.00886 -0.418739 0)
(-5.86619 -0.686264 0)
(-5.6352 -0.864486 0)
(-5.28967 -0.971063 0)
(-4.78011 -1.06402 0)
(-4.13201 -1.17728 0)
(-3.39371 -1.32667 0)
(-2.61661 -1.49094 0)
(-1.83217 -1.60875 0)
(-1.02207 -1.67857 0)
(-0.227661 -1.75871 0)
(0.466891 -1.83501 0)
(0.951651 -1.91191 0)
(1.19515 -2.01826 0)
(1.29947 -2.22442 0)
(1.2884 -2.48573 0)
(1.21263 -2.82681 0)
(1.09176 -3.16106 0)
(0.922115 -3.33876 0)
(0.735793 -3.36502 0)
(0.602126 -3.27252 0)
(0.744158 -3.10788 0)
(1.15742 -2.87307 0)
(1.59757 -2.60395 0)
(2.04483 -2.289 0)