/*--------------------------------*- C++ -*----------------------------------*\
| =========                 |                                                 |
| \\      /  F ield         | OpenFOAM: The Open Source CFD Toolbox           |
|  \\    /   O peration     | Version:  2206                                  |
|   \\  /    A nd           | Website:  www.openfoam.com                      |
|    \\/     M anipulation  |                                                 |
\*---------------------------------------------------------------------------*/
FoamFile
{
    version     2.0;
    format      ascii;
    arch        "LSB;label=32;scalar=64";
    class       volVectorField;
    location    "20.0001";
    object      ddt0(U);
}
// * * * * * * * * * * * * * * * * * * * * * * * * * * * * * * * * * * * * * //

dimensions      [0 1 -2 0 0 0 0];

internalField   nonuniform List<vector> 
1813
(
(88.1098 -11.594 0)
(77.1679 9.97463 0)
(63.5712 33.7937 0)
(46.2141 56.1803 0)
(27.8519 74.9215 0)
(8.56952 87.9194 0)
(-11.1108 94.8755 0)
(-29.9723 95.6044 0)
(-47.1165 90.3603 0)
(-62.066 79.7748 0)
(-74.9349 65.3587 0)
(-85.7584 48.1455 0)
(-94.6259 29.12 0)
(-101.853 9.44991 0)
(-107.957 -10.2637 0)
(-113.034 -29.7401 0)
(-117.232 -48.8506 0)
(-119.853 -66.6156 0)
(-119.864 -81.6116 0)
(-113.202 -90.2389 0)
(-100.605 -92.4615 0)
(-81.7522 -88.1799 0)
(-58.9409 -78.2305 0)
(-33.676 -65.8119 0)
(-4.2071 -52.5785 0)
(29.3371 -31.6595 0)
(61.0958 -11.2603 0)
(87.4907 5.12456 0)
(104.1 14.7813 0)
(109.706 16.8644 0)
(107.14 13.0891 0)
(100.265 6.59716 0)
(90.7328 0.242854 0)
(80.1209 -3.88805 0)
(69.6702 -4.66415 0)
(60.0444 -1.7968 0)
(51.4154 4.38819 0)
(43.4752 13.4224 0)
(35.0308 24.3007 0)
(25.9356 35.264 0)
(16.8581 45.597 0)
(7.37098 54.0435 0)
(-2.3635 59.6553 0)
(-11.9359 61.7547 0)
(-20.6297 59.9009 0)
(-28.0874 54.6914 0)
(-34.5045 47.1452 0)
(-39.9204 37.7954 0)
(-44.479 27.1841 0)
(-48.2817 15.8013 0)
(-51.0346 4.06521 0)
(-53.2002 -7.76204 0)
(-54.7156 -19.5649 0)
(-55.5156 -30.8912 0)
(-55.4579 -41.2035 0)
(-53.9471 -49.7676 0)
(-49.599 -55.1471 0)
(-42.5758 -57.4838 0)
(-33.1679 -57.003 0)
(-21.9517 -54.0144 0)
(-9.46916 -49.0397 0)
(4.52964 -42.6394 0)
(19.792 -34.0705 0)
(33.8218 -23.8728 0)
(45.4732 -14.9521 0)
(53.3083 -7.94784 0)
(56.5263 -2.80122 0)
(55.723 0.882089 0)
(52.6559 3.87387 0)
(48.0973 7.07825 0)
(42.6543 10.9039 0)
(36.7175 15.5436 0)
(30.411 21.0927 0)
(23.6087 26.9862 0)
(16.7926 32.6204 0)
(10.175 37.7065 0)
(3.68721 41.6064 0)
(-2.5439 43.6972 0)
(-8.16412 43.322 0)
(-12.9568 40.6158 0)
(-16.9955 36.2308 0)
(-20.2126 30.5323 0)
(-22.6411 23.9442 0)
(-24.4879 16.8311 0)
(-25.9514 9.47291 0)
(-26.8273 2.06238 0)
(-27.1956 -5.27541 0)
(-27.1064 -12.4251 0)
(-26.4685 -19.0653 0)
(-25.3765 -24.9967 0)
(-23.7887 -30.0969 0)
(-21.4563 -34.1124 0)
(-18.0521 -36.554 0)
(-13.7169 -37.4907 0)
(-8.72351 -37.0491 0)
(-3.28075 -35.2823 0)
(2.48501 -32.3324 0)
(8.46417 -28.3889 0)
(14.4523 -23.5729 0)
(19.9094 -18.0096 0)
(24.1699 -12.0945 0)
(26.9838 -6.51531 0)
(28.2645 -1.60624 0)
(28.2392 2.81385 0)
(27.1432 7.14027 0)
(25.0606 11.4877 0)
(22.1167 15.8411 0)
(18.4278 20.0097 0)
(14.3819 23.9241 0)
(10.0956 27.3548 0)
(5.61698 29.9936 0)
(1.07293 31.4854 0)
(-3.20433 31.3527 0)
(-6.98461 29.6957 0)
(-10.2038 26.8118 0)
(-12.7707 22.9231 0)
(-14.6577 18.3311 0)
(-15.9556 13.3342 0)
(-16.8585 8.18936 0)
(-17.4742 3.09498 0)
(-17.637 -1.87711 0)
(87.2791 1.36935 0)
(73.0278 24.3546 0)
(56.571 49.7004 0)
(39.8683 73.7137 0)
(22.6015 93.4741 0)
(4.61976 107.081 0)
(-13.4483 113.805 0)
(-30.4541 113.214 0)
(-45.2162 105.596 0)
(-57.9312 93.0525 0)
(-68.3995 76.6067 0)
(-76.6542 57.4295 0)
(-83.1492 36.6252 0)
(-88.1231 15.2084 0)
(-91.2757 -6.03908 0)
(-93.5434 -26.6667 0)
(-95.162 -46.1496 0)
(-96.66 -64.1126 0)
(-98.1674 -80.521 0)
(-98.5807 -94.4394 0)
(-94.6659 -102.663 0)
(-85.3342 -104.023 0)
(-71.2249 -99.0878 0)
(-53.4525 -88.8371 0)
(-33.0637 -77.1077 0)
(-8.75399 -65.191 0)
(21.5477 -48.4176 0)
(51.3781 -25.0777 0)
(77.6137 -5.25492 0)
(97.0522 7.35574 0)
(108.18 13.1696 0)
(108.978 13.4212 0)
(103.508 10.9558 0)
(93.7148 8.59755 0)
(81.5976 8.03184 0)
(68.9008 10.0859 0)
(56.7628 15.282 0)
(45.4523 23.9154 0)
(34.0741 34.4726 0)
(23.4365 45.1548 0)
(13.6502 55.2509 0)
(4.21035 63.5474 0)
(-4.85348 68.9273 0)
(-13.1698 70.2365 0)
(-20.2061 67.0454 0)
(-26.2021 60.8679 0)
(-31.0685 52.2755 0)
(-34.7835 41.978 0)
(-37.6227 30.6128 0)
(-40.0856 18.5786 0)
(-42.1062 6.12589 0)
(-43.231 -6.53866 0)
(-43.7811 -19.1809 0)
(-43.4841 -31.0235 0)
(-42.6332 -41.6407 0)
(-41.4428 -50.923 0)
(-39.5854 -58.5234 0)
(-36.2729 -63.4782 0)
(-31.0761 -65.1117 0)
(-24.3776 -64.1335 0)
(-16.2559 -60.6251 0)
(-6.88095 -54.8566 0)
(3.63172 -47.4113 0)
(15.5178 -38.5512 0)
(27.6618 -27.7264 0)
(37.9724 -16.3385 0)
(45.7564 -6.58887 0)
(49.8812 1.12622 0)
(49.7982 6.95352 0)
(47.2135 12.0114 0)
(42.6788 16.9835 0)
(36.8873 22.4287 0)
(30.3053 28.5146 0)
(23.241 34.3575 0)
(16.4212 39.7958 0)
(9.7951 44.4931 0)
(3.49185 47.996 0)
(-2.2395 49.5108 0)
(-7.09015 48.1905 0)
(-11.1764 44.776 0)
(-14.4786 39.5401 0)
(-16.8926 32.9811 0)
(-18.4177 25.6698 0)
(-19.3455 18.0896 0)
(-20.244 10.4224 0)
(-20.9438 2.62555 0)
(-21.1954 -5.27943 0)
(-21.0866 -13.062 0)
(-20.3261 -20.2283 0)
(-19.0675 -26.5429 0)
(-17.4503 -31.9255 0)
(-15.5039 -36.3359 0)
(-13.1448 -39.6405 0)
(-10.2051 -41.3462 0)
(-6.83707 -41.3463 0)
(-3.25274 -39.9882 0)
(0.556544 -37.3232 0)
(4.48534 -33.4226 0)
(8.36419 -28.4439 0)
(12.0611 -22.6497 0)
(15.5102 -16.2628 0)
(18.5283 -9.48239 0)
(20.5783 -2.97074 0)
(21.7109 2.63391 0)
(21.8291 8.23467 0)
(20.5761 13.8014 0)
(18.2366 18.9671 0)
(15.2487 23.7332 0)
(11.8303 28.0324 0)
(8.11859 31.6856 0)
(4.22588 34.4589 0)
(0.342138 35.8625 0)
(-3.16749 35.2271 0)
(-6.18151 33.0519 0)
(-8.62651 29.4909 0)
(-10.4019 24.8621 0)
(-11.4707 19.5926 0)
(-11.9183 14.1095 0)
(-12.1168 8.69909 0)
(-12.4836 3.37734 0)
(-12.5948 -1.84284 0)
(82.7155 18.3975 0)
(65.5829 41.3572 0)
(48.153 66.5593 0)
(32.0078 90.8682 0)
(15.7115 110.96 0)
(-0.78036 124.876 0)
(-16.7462 130.969 0)
(-30.6721 127.951 0)
(-42.4023 118.352 0)
(-51.8043 103.392 0)
(-58.7793 84.5464 0)
(-63.5801 63.3598 0)
(-67.1068 41.046 0)
(-70.2244 18.3657 0)
(-71.9954 -4.082 0)
(-72.6244 -25.7241 0)
(-72.7053 -45.5891 0)
(-72.8502 -63.4551 0)
(-73.5578 -79.5972 0)
(-74.693 -94.1374 0)
(-75.0712 -105.934 0)
(-71.9753 -111.888 0)
(-64.1953 -111.32 0)
(-52.6043 -105.993 0)
(-34.5537 -97.9491 0)
(-19.7266 -85.41 0)
(-5.15045 -70.6969 0)
(15.5736 -54.5971 0)
(43.257 -32.575 0)
(66.1759 -13.5617 0)
(83.7326 0.819216 0)
(94.4895 10.6879 0)
(95.7362 15.8519 0)
(90.915 18.4409 0)
(81.9883 20.4966 0)
(70.6191 23.418 0)
(58.3314 28.5889 0)
(45.8694 36.9078 0)
(33.307 46.3667 0)
(22.1212 56.0942 0)
(11.9545 65.3017 0)
(2.56206 72.8937 0)
(-5.90981 77.5145 0)
(-12.9792 77.4269 0)
(-18.6849 73.1956 0)
(-23.2806 65.7918 0)
(-26.6143 55.8983 0)
(-28.6296 44.4666 0)
(-29.6061 32.3994 0)
(-30.4559 20.1489 0)
(-31.8228 7.50901 0)
(-32.4476 -5.6451 0)
(-32.5712 -19.3491 0)
(-31.7315 -32.0689 0)
(-30.4697 -43.1791 0)
(-29.0832 -52.7154 0)
(-27.5424 -60.5205 0)
(-25.7056 -66.2055 0)
(-23.1477 -69.0325 0)
(-19.7221 -69.1438 0)
(-15.5018 -67.2388 0)
(-10.0425 -63.1375 0)
(-3.50143 -56.6674 0)
(3.61802 -48.1076 0)
(11.1908 -38.1614 0)
(19.4365 -27.165 0)
(27.2142 -14.7475 0)
(32.6378 -2.76489 0)
(36.4468 6.61484 0)
(38.0423 14.3744 0)
(36.5955 21.6102 0)
(32.6637 28.3376 0)
(27.4259 34.77 0)
(21.6756 40.8417 0)
(15.7904 46.2481 0)
(9.98402 50.7846 0)
(4.53533 53.9276 0)
(-0.181074 54.5037 0)
(-4.0831 52.4956 0)
(-7.36217 48.2795 0)
(-9.98414 42.148 0)
(-11.8409 34.6678 0)
(-12.8114 26.5676 0)
(-12.954 18.6204 0)
(-13.2612 11.0585 0)
(-14.0624 3.15996 0)
(-14.6506 -5.04899 0)
(-14.8766 -13.4407 0)
(-14.3279 -21.1853 0)
(-13.331 -27.9687 0)
(-12.0025 -33.7407 0)
(-10.354 -38.4209 0)
(-8.44319 -41.9318 0)
(-6.2888 -44.0058 0)
(-4.00613 -44.1272 0)
(-1.78609 -42.9196 0)
(0.446789 -40.3901 0)
(2.73012 -36.507 0)
(4.9698 -31.3397 0)
(6.93742 -25.1674 0)
(8.40607 -18.4518 0)
(9.45133 -11.7385 0)
(10.7792 -5.14523 0)
(11.9917 1.65354 0)
(13.229 8.47166 0)
(13.1213 15.1208 0)
(11.761 21.1744 0)
(9.85535 26.5387 0)
(7.56961 31.1945 0)
(4.99021 35.0594 0)
(2.27723 37.9228 0)
(-0.275737 39.0674 0)
(-2.36739 38.0123 0)
(-4.06494 35.3187 0)
(-5.40033 31.1528 0)
(-6.34157 25.8624 0)
(-6.84316 19.9632 0)
(-6.81631 14.0498 0)
(-6.36082 8.68048 0)
(-6.52662 3.68677 0)
(-6.87286 -1.70378 0)
(72.9423 37.5803 0)
(54.3847 58.9518 0)
(37.8582 83.418 0)
(22.3802 107.055 0)
(7.39876 126.803 0)
(-6.88355 140.198 0)
(-19.4608 144.542 0)
(-29.6677 139.472 0)
(-37.8806 127.602 0)
(-43.8922 110.167 0)
(-47.4568 88.9404 0)
(-48.5312 66.0196 0)
(-48.0752 43.0643 0)
(-48.4462 20.1005 0)
(-48.8748 -3.68395 0)
(-47.9772 -26.2655 0)
(-47.0667 -45.9219 0)
(-47.1457 -63.1397 0)
(-48.412 -78.7034 0)
(-50.4253 -92.788 0)
(-52.6813 -105.32 0)
(-53.7922 -115.321 0)
(-50.7408 -119.54 0)
(-43.4389 -117.761 0)
(-33.6441 -110.319 0)
(-21.0461 -98.8787 0)
(-10.1356 -85.5602 0)
(0.41325 -71.6588 0)
(18.5214 -55.2782 0)
(35.4046 -35.5314 0)
(51.5751 -14.9117 0)
(65.0674 1.61486 0)
(72.8968 13.8694 0)
(73.9015 22.6593 0)
(69.3354 28.6535 0)
(61.4569 34.0713 0)
(51.3131 40.9863 0)
(39.7944 49.3826 0)
(28.4824 58.1587 0)
(18.2439 67.0164 0)
(8.83383 75.2129 0)
(0.361589 81.7832 0)
(-6.73311 84.9875 0)
(-12.0416 83.1903 0)
(-16.0796 77.7818 0)
(-19.0357 69.1207 0)
(-20.8784 57.9607 0)
(-21.5505 45.3869 0)
(-20.9389 32.6471 0)
(-19.7813 20.6726 0)
(-20.2256 8.30787 0)
(-20.4088 -5.85426 0)
(-20.4452 -19.9393 0)
(-19.269 -32.8703 0)
(-17.985 -44.27 0)
(-16.8323 -53.959 0)
(-15.8566 -61.9638 0)
(-15.2506 -67.9773 0)
(-13.9792 -71.5851 0)
(-11.5122 -72.0447 0)
(-8.99327 -70.6795 0)
(-6.4574 -67.2825 0)
(-3.94785 -61.4385 0)
(-1.37842 -53.319 0)
(1.25852 -43.125 0)
(3.87243 -31.9965 0)
(6.59224 -21.0763 0)
(11.5496 -9.2321 0)
(17.5756 0.310069 0)
(22.4654 12.2293 0)
(24.5204 22.5339 0)
(23.6518 31.86 0)
(21.093 39.9286 0)
(17.614 46.5609 0)
(13.6011 51.8951 0)
(9.41573 56.0616 0)
(5.53504 58.5425 0)
(2.36871 58.1945 0)
(-0.138124 55.6126 0)
(-2.2694 50.837 0)
(-4.13367 44.1145 0)
(-5.71317 35.9192 0)
(-6.728 27.0083 0)
(-6.70593 18.4898 0)
(-6.48841 11.2528 0)
(-7.21208 4.72164 0)
(-8.30885 -4.52809 0)
(-8.95024 -13.4534 0)
(-8.49881 -21.6502 0)
(-7.75157 -28.8294 0)
(-6.84418 -34.9821 0)
(-5.62622 -40.0523 0)
(-4.18 -43.8413 0)
(-2.67519 -46.0009 0)
(-1.22007 -45.8968 0)
(-0.00879122 -44.4123 0)
(0.908753 -41.8266 0)
(1.69421 -38.0483 0)
(2.37495 -32.8451 0)
(2.85451 -26.4024 0)
(2.96994 -19.0971 0)
(2.28686 -11.6552 0)
(2.28 -4.94704 0)
(2.68244 -1.29095 0)
(3.81062 7.37496 0)
(4.24073 15.4587 0)
(3.85826 22.1002 0)
(3.21752 28.0048 0)
(2.42631 33.023 0)
(1.55232 37.0988 0)
(0.755582 39.947 0)
(0.234632 40.5737 0)
(0.0298236 39.1659 0)
(-0.120934 36.2296 0)
(-0.376689 31.8821 0)
(-0.786989 26.3743 0)
(-1.29061 20.1545 0)
(-1.6353 13.7819 0)
(-1.47576 8.04708 0)
(-1.82113 3.60675 0)
(-2.36584 0.247098 0)
(54.6419 55.1265 0)
(38.2497 75.84 0)
(23.3037 99.2254 0)
(9.31183 121.842 0)
(-3.56823 140.612 0)
(-14.7489 152.673 0)
(-22.8696 154.057 0)
(-28.418 147.056 0)
(-31.9407 132.996 0)
(-33.5795 113.211 0)
(-33.3717 89.5569 0)
(-31.1134 64.4968 0)
(-26.8558 40.6117 0)
(-23.751 19.1631 0)
(-22.3491 -2.81827 0)
(-20.3058 -28.4433 0)
(-17.9231 -47.0428 0)
(-18.8011 -61.904 0)
(-22.5795 -75.8695 0)
(-26.7341 -89.5811 0)
(-31.0357 -102.499 0)
(-34.8214 -113.79 0)
(-36.8571 -122.322 0)
(-35.1155 -123.896 0)
(-30.1261 -119.11 0)
(-22.4458 -108.981 0)
(-12.521 -96.0668 0)
(-1.93528 -82.0573 0)
(3.48219 -66.3288 0)
(14.6071 -49.1663 0)
(23.8366 -31.1195 0)
(33.8486 -10.5117 0)
(42.8746 7.26094 0)
(48.8039 21.7926 0)
(49.2105 33.0172 0)
(44.8896 42.2943 0)
(37.3549 51.1678 0)
(28.4361 59.7895 0)
(19.5147 68.1448 0)
(11.1037 76.1832 0)
(3.38661 83.4957 0)
(-3.25843 88.9391 0)
(-8.10494 90.1501 0)
(-11.0773 87.0216 0)
(-12.7554 80.396 0)
(-13.459 70.6008 0)
(-13.4874 58.3184 0)
(-12.955 44.6754 0)
(-11.5486 31.1185 0)
(-9.83894 18.8833 0)
(-9.54493 8.17403 0)
(-8.1267 -3.86756 0)
(-6.24183 -22.5001 0)
(-4.73414 -34.922 0)
(-3.79716 -45.6699 0)
(-3.69954 -54.8093 0)
(-3.95646 -61.9935 0)
(-5.28369 -67.8229 0)
(-6.28006 -72.3702 0)
(-5.45669 -74.0083 0)
(-3.50163 -72.4816 0)
(-2.7864 -68.4271 0)
(-2.22675 -62.1481 0)
(-1.71767 -53.9427 0)
(-1.24342 -44.1518 0)
(-0.294842 -33.0582 0)
(-0.34467 -21.6221 0)
(-0.574939 -11.5733 0)
(0.674704 -4.58417 0)
(2.87518 6.72161 0)
(4.92737 20.6828 0)
(6.03904 31.0006 0)
(7.37527 40.2117 0)
(7.73106 48.0958 0)
(7.12574 54.4214 0)
(5.9787 59.0604 0)
(4.67363 61.2348 0)
(3.62939 60.394 0)
(2.84418 57.4729 0)
(2.06041 52.5637 0)
(1.09396 45.8021 0)
(-0.106711 37.4083 0)
(-1.3487 27.8411 0)
(-2.13816 18.3007 0)
(-2.18115 10.4521 0)
(-2.49168 5.74682 0)
(-2.91949 -2.9916 0)
(-3.07449 -13.9056 0)
(-2.55454 -22.3467 0)
(-1.97771 -29.6727 0)
(-1.51399 -35.8721 0)
(-1.09949 -40.937 0)
(-0.755851 -44.7379 0)
(-0.218645 -46.9225 0)
(0.481143 -46.8 0)
(1.45124 -45.297 0)
(2.81426 -42.3664 0)
(2.83123 -38.0671 0)
(2.50357 -32.4126 0)
(1.74784 -25.5813 0)
(0.319404 -18.0504 0)
(-0.693775 -10.6168 0)
(-1.39685 -4.5581 0)
(-1.92069 -1.29205 0)
(-2.32467 7.13344 0)
(-2.49683 15.2838 0)
(-2.38733 21.9837 0)
(-2.10973 27.879 0)
(-1.68496 32.7901 0)
(-1.07266 36.6663 0)
(-0.259432 39.2533 0)
(0.705406 39.7517 0)
(1.5045 38.4734 0)
(2.02823 35.8226 0)
(2.20195 31.9076 0)
(2.00545 26.8287 0)
(1.48622 20.864 0)
(0.771009 14.5536 0)
(0.115147 8.61605 0)
(-0.26751 3.89425 0)
(-0.799565 1.27069 0)
(-0.608137 1.75964 0)
(1.83046 0.00984776 0)
(1.83844 -0.00642755 0)
(1.74174 0.0825196 0)
(1.37989 0.256617 0)
(0.657007 0.462923 0)
(-0.465729 0.672141 0)
(-1.94177 0.825865 0)
(-3.66189 0.916454 0)
(-5.53689 1.06648 0)
(-7.48888 1.04603 0)
(-9.35142 0.933713 0)
(-10.9122 0.722638 0)
(-11.9525 0.378099 0)
(-12.351 0.0414296 0)
(-12.0956 -0.310143 0)
(-11.1841 -0.6436 0)
(-9.6795 -0.923248 0)
(-7.70774 -1.12338 0)
(-5.43627 -1.22545 0)
(-3.05055 -1.23757 0)
(-0.729064 -1.16331 0)
(1.30864 -1.04926 0)
(2.99054 -0.819916 0)
(4.31494 -0.596406 0)
(5.23982 -0.393518 0)
(5.82005 -0.231051 0)
(6.14949 -0.126694 0)
(6.34043 -0.0795283 0)
(6.49382 -0.0815159 0)
(6.68474 -0.114652 0)
(6.95041 -0.157529 0)
(7.28569 -0.188192 0)
(7.64608 -0.186227 0)
(7.95433 -0.139895 0)
(8.12044 -0.0440016 0)
(8.0551 0.0948157 0)
(7.68518 0.259853 0)
(6.94882 0.454818 0)
(5.80596 0.680631 0)
(4.24019 0.903655 0)
(2.51388 1.19675 0)
(0.609246 1.18504 0)
(-1.57666 1.17054 0)
(-3.74663 1.09973 0)
(-5.77168 0.981346 0)
(-7.54662 0.814376 0)
(-8.97432 0.61137 0)
(-9.9812 0.381142 0)
(-10.5626 0.132842 0)
(-10.5681 -0.104364 0)
(-10.21 -0.314727 0)
(-9.44512 -0.499294 0)
(-8.3225 -0.646711 0)
(-6.97714 -0.751021 0)
(-5.44912 -0.816449 0)
(-3.82558 -0.842028 0)
(-2.18564 -0.831332 0)
(-0.592961 -0.792795 0)
(0.902454 -0.733824 0)
(2.27065 -0.663432 0)
(3.49446 -0.591371 0)
(4.55891 -0.520842 0)
(5.48357 -0.449716 0)
(6.26989 -0.378715 0)
(6.90841 -0.30433 0)
(7.39924 -0.225305 0)
(7.73221 -0.139831 0)
(7.89051 -0.0459019 0)
(7.85221 0.0586466 0)
(7.58894 0.177929 0)
(7.06315 0.31835 0)
(6.34833 0.516753 0)
(5.49106 0.63759 0)
(4.37942 0.704338 0)
(3.0434 0.756144 0)
(1.55659 0.788779 0)
(-0.0356498 0.796338 0)
(-1.63061 0.785941 0)
(-3.16788 0.735942 0)
(-4.60179 0.655435 0)
(-5.86026 0.549394 0)
(-6.89001 0.423651 0)
(-7.6527 0.285261 0)
(-8.12543 0.141239 0)
(-8.30055 -0.00178581 0)
(-8.18573 -0.136441 0)
(-7.8038 -0.256489 0)
(-7.18845 -0.358535 0)
(-6.37913 -0.440746 0)
(-5.42008 -0.502508 0)
(-4.34628 -0.542474 0)
(-3.21328 -0.562274 0)
(-2.05053 -0.565923 0)
(-0.890135 -0.555739 0)
(0.241789 -0.53393 0)
(1.32452 -0.502969 0)
(2.34276 -0.467821 0)
(3.27376 -0.427003 0)
(4.10087 -0.393422 0)
(4.8107 -0.316594 0)
(5.40751 -0.247667 0)
(5.85965 -0.173961 0)
(6.15062 -0.0927403 0)
(6.27091 -0.007222 0)
(6.20929 0.080938 0)
(5.95938 0.169173 0)
(5.52388 0.254483 0)
(4.9128 0.333104 0)
(4.14556 0.399963 0)
(3.25361 0.44842 0)
(2.27571 0.475833 0)
(1.25334 0.478155 0)
(0.234411 0.463392 0)
(-0.742122 0.442225 0)
(-1.62786 0.40766 0)
(-2.38663 0.324805 0)
(-3.01343 0.246208 0)
(-3.47987 0.164701 0)
(-3.77822 0.0815791 0)
(-3.91149 0.00368566 0)
(-3.89147 -0.0660365 0)
(1.28017 -0.0591139 0)
(1.43113 -0.0505092 0)
(1.42526 0.261667 0)
(1.11321 0.809684 0)
(0.416859 1.44438 0)
(-0.762168 2.03493 0)
(-2.3597 2.55275 0)
(-4.11151 3.05993 0)
(-5.98663 3.14085 0)
(-8.01498 2.977 0)
(-9.83108 2.59388 0)
(-11.3517 2.02285 0)
(-12.2547 0.916124 0)
(-12.4233 0.00331813 0)
(-11.9822 -1.00084 0)
(-10.8845 -1.95898 0)
(-9.20295 -2.76079 0)
(-7.07509 -3.32476 0)
(-4.68728 -3.60846 0)
(-2.24372 -3.60234 0)
(0.0622633 -3.3437 0)
(2.11634 -2.90702 0)
(3.82995 -2.30783 0)
(5.0998 -1.66369 0)
(5.91984 -1.06897 0)
(6.34858 -0.582776 0)
(6.50136 -0.283462 0)
(6.5198 -0.157237 0)
(6.5231 -0.17541 0)
(6.59845 -0.29081 0)
(6.7832 -0.421842 0)
(7.06755 -0.510748 0)
(7.39321 -0.501187 0)
(7.66997 -0.349986 0)
(7.79391 -0.0723779 0)
(7.66358 0.34838 0)
(7.22589 0.832202 0)
(6.40969 1.45649 0)
(5.20499 2.07038 0)
(3.76468 2.60772 0)
(1.90919 3.09098 0)
(-0.206019 3.25458 0)
(-2.28474 3.26205 0)
(-4.34329 3.10422 0)
(-6.25046 2.77964 0)
(-7.88618 2.30498 0)
(-9.16041 1.71233 0)
(-10.0112 1.04225 0)
(-10.4063 0.330862 0)
(-10.3476 -0.359509 0)
(-9.85109 -0.983323 0)
(-8.96531 -1.52358 0)
(-7.76452 -1.95016 0)
(-6.32354 -2.25032 0)
(-4.7333 -2.4275 0)
(-3.08224 -2.48543 0)
(-1.44685 -2.4376 0)
(0.111798 -2.30642 0)
(1.54852 -2.11595 0)
(2.83265 -1.89252 0)
(3.95372 -1.66035 0)
(4.9098 -1.43284 0)
(5.6977 -1.2106 0)
(6.32732 -0.990435 0)
(6.82133 -0.772483 0)
(7.18031 -0.548002 0)
(7.39823 -0.306251 0)
(7.46578 -0.0400431 0)
(7.36825 0.2565 0)
(7.08902 0.590021 0)
(6.6331 0.95638 0)
(5.92247 1.36442 0)
(4.90762 1.71404 0)
(3.72205 1.98934 0)
(2.37853 2.20583 0)
(0.893906 2.34683 0)
(-0.684766 2.39593 0)
(-2.27419 2.36837 0)
(-3.79693 2.2257 0)
(-5.19169 1.9831 0)
(-6.39275 1.65681 0)
(-7.34665 1.26626 0)
(-8.01698 0.834223 0)
(-8.38255 0.382132 0)
(-8.43299 -0.0665382 0)
(-8.19236 -0.486646 0)
(-7.68258 -0.860482 0)
(-6.94217 -1.17672 0)
(-6.01428 -1.42899 0)
(-4.94541 -1.61529 0)
(-3.78073 -1.73573 0)
(-2.56222 -1.79506 0)
(-1.32955 -1.80217 0)
(-0.116553 -1.76694 0)
(1.04969 -1.69434 0)
(2.14855 -1.59143 0)
(3.16365 -1.46412 0)
(4.07541 -1.31588 0)
(4.87864 -1.16728 0)
(5.57122 -0.994748 0)
(6.14119 -0.76809 0)
(6.55032 -0.515468 0)
(6.78718 -0.260619 0)
(6.83242 0.0164388 0)
(6.67702 0.306048 0)
(6.31968 0.594387 0)
(5.76423 0.867729 0)
(5.0344 1.1137 0)
(4.14817 1.31743 0)
(3.14125 1.4678 0)
(2.06173 1.55768 0)
(0.951539 1.58419 0)
(-0.143422 1.5536 0)
(-1.16287 1.44059 0)
(-2.11864 1.28208 0)
(-2.94015 1.06398 0)
(-3.58857 0.816697 0)
(-4.06262 0.556895 0)
(-4.35554 0.298047 0)
(-4.47226 0.0525522 0)
(1.73813 -0.365473 0)
(2.13744 -0.289591 0)
(2.30256 0.341187 0)
(1.95789 1.35088 0)
(1.05962 2.50253 0)
(-0.299773 3.60924 0)
(-1.81733 4.56705 0)
(-3.6485 5.11125 0)
(-5.81288 5.12167 0)
(-7.72971 4.79691 0)
(-9.40778 4.08174 0)
(-11.1098 2.97459 0)
(-11.9442 1.52492 0)
(-11.7864 -0.140649 0)
(-11.3244 -1.86217 0)
(-10.1551 -3.4641 0)
(-8.3948 -4.78045 0)
(-6.20958 -5.68414 0)
(-3.79408 -6.09876 0)
(-1.36374 -6.00541 0)
(0.879619 -5.47162 0)
(2.7991 -4.61304 0)
(4.25782 -3.60466 0)
(5.20083 -2.51855 0)
(5.74703 -1.50423 0)
(5.92995 -0.721211 0)
(5.86438 -0.235214 0)
(5.72641 -0.0614361 0)
(5.60241 -0.137225 0)
(5.58676 -0.362976 0)
(5.71511 -0.613128 0)
(5.9717 -0.794794 0)
(6.30874 -0.805225 0)
(6.64061 -0.581292 0)
(6.86271 -0.10597 0)
(6.8569 0.617659 0)
(6.65369 1.5808 0)
(6.16644 2.52014 0)
(5.2068 3.45909 0)
(3.80474 4.26112 0)
(2.07234 4.81161 0)
(0.11747 5.2156 0)
(-1.92062 5.30576 0)
(-3.93974 5.07355 0)
(-5.81899 4.54091 0)
(-7.44196 3.74838 0)
(-8.71685 2.75385 0)
(-9.57678 1.6369 0)
(-9.98992 0.469944 0)
(-9.94463 -0.675044 0)
(-9.47692 -1.72153 0)
(-8.62609 -2.61413 0)
(-7.46469 -3.31551 0)
(-6.07722 -3.80492 0)
(-4.55288 -4.07816 0)
(-2.97683 -4.14674 0)
(-1.42535 -4.03863 0)
(0.0380899 -3.791 0)
(1.36959 -3.44703 0)
(2.54391 -3.05193 0)
(3.55485 -2.64263 0)
(4.41069 -2.24442 0)
(5.12743 -1.86581 0)
(5.72137 -1.50902 0)
(6.2044 -1.16434 0)
(6.58055 -0.811304 0)
(6.8423 -0.427806 0)
(6.97412 -0.00588343 0)
(6.96409 0.459504 0)
(6.78627 0.986317 0)
(6.40101 1.54816 0)
(5.77535 2.09583 0)
(4.90308 2.64633 0)
(3.81618 3.16298 0)
(2.53929 3.58286 0)
(1.10518 3.86842 0)
(-0.432572 3.99168 0)
(-1.99989 3.94456 0)
(-3.51759 3.71561 0)
(-4.91284 3.31304 0)
(-6.11451 2.76161 0)
(-7.06279 2.09685 0)
(-7.72053 1.36055 0)
(-8.0536 0.589592 0)
(-8.0724 -0.172112 0)
(-7.78984 -0.881549 0)
(-7.23427 -1.50908 0)
(-6.44836 -2.03528 0)
(-5.48055 -2.45153 0)
(-4.38045 -2.75572 0)
(-3.19657 -2.94958 0)
(-1.97379 -3.04044 0)
(-0.752602 -3.04051 0)
(0.433327 -2.96211 0)
(1.55828 -2.81997 0)
(2.60373 -2.62871 0)
(3.55382 -2.40051 0)
(4.39504 -2.14837 0)
(5.13773 -1.88728 0)
(5.76782 -1.59287 0)
(6.24684 -1.24362 0)
(6.58402 -0.839495 0)
(6.75583 -0.396515 0)
(6.732 0.0794426 0)
(6.50702 0.570775 0)
(6.08562 1.05581 0)
(5.47094 1.51861 0)
(4.67615 1.93863 0)
(3.71872 2.29901 0)
(2.61191 2.55277 0)
(1.42919 2.71474 0)
(0.267031 2.78035 0)
(-0.874071 2.68948 0)
(-1.98295 2.47697 0)
(-2.94941 2.17387 0)
(-3.75276 1.81102 0)
(-4.37021 1.39629 0)
(-4.79151 0.952654 0)
(-5.01202 0.505048 0)
(-5.0358 0.0788118 0)
(2.27659 -1.04625 0)
(3.02556 -0.748639 0)
(3.39743 0.383412 0)
(3.106 1.9689 0)
(2.09175 3.61271 0)
(0.573575 5.09993 0)
(-1.37231 6.29086 0)
(-3.56293 6.86327 0)
(-5.63024 7.05307 0)
(-7.57796 6.61965 0)
(-9.30284 5.58767 0)
(-10.7304 3.92893 0)
(-11.5323 2.08651 0)
(-11.5978 -0.372176 0)
(-11.0338 -2.82477 0)
(-9.79334 -5.04768 0)
(-7.96885 -6.83898 0)
(-5.69747 -8.04038 0)
(-3.19672 -8.58172 0)
(-0.7166 -8.40756 0)
(1.50236 -7.59326 0)
(3.31637 -6.32087 0)
(4.66338 -4.80839 0)
(5.50926 -3.24453 0)
(5.87432 -1.7873 0)
(5.86875 -0.682965 0)
(5.5585 -0.031184 0)
(5.12124 0.169756 0)
(4.7571 -0.0190073 0)
(4.59297 -0.429293 0)
(4.67161 -0.831037 0)
(4.98975 -1.1632 0)
(5.47329 -1.24825 0)
(6.0196 -0.970821 0)
(6.48899 -0.332142 0)
(6.80988 0.646854 0)
(6.75554 1.96465 0)
(6.23273 3.31897 0)
(5.36642 4.62905 0)
(4.09085 5.8121 0)
(2.46331 6.73619 0)
(0.581545 7.31291 0)
(-1.43795 7.46207 0)
(-3.47228 7.15557 0)
(-5.39235 6.41402 0)
(-7.07513 5.29735 0)
(-8.41976 3.89515 0)
(-9.3536 2.31516 0)
(-9.8351 0.66813 0)
(-9.82771 -0.938973 0)
(-9.38727 -2.40693 0)
(-8.54284 -3.65737 0)
(-7.3692 -4.6329 0)
(-5.96004 -5.30338 0)
(-4.4165 -5.66576 0)
(-2.83572 -5.74113 0)
(-1.30118 -5.56998 0)
(0.120362 -5.20629 0)
(1.38186 -4.71236 0)
(2.46165 -4.15451 0)
(3.36395 -3.59047 0)
(4.11071 -3.0582 0)
(4.73088 -2.56793 0)
(5.2526 -2.10663 0)
(5.70014 -1.65656 0)
(6.08503 -1.19243 0)
(6.39246 -0.681603 0)
(6.60023 -0.128109 0)
(6.69887 0.482792 0)
(6.65857 1.19981 0)
(6.41582 2.00416 0)
(5.91127 2.83196 0)
(5.14117 3.63098 0)
(4.1128 4.37192 0)
(2.84171 4.99287 0)
(1.36473 5.43358 0)
(-0.255691 5.64357 0)
(-1.93565 5.59769 0)
(-3.58252 5.28412 0)
(-5.10342 4.71293 0)
(-6.41091 3.91885 0)
(-7.43565 2.95482 0)
(-8.13574 1.88516 0)
(-8.46044 0.76801 0)
(-8.44652 -0.331496 0)
(-8.09157 -1.3522 0)
(-7.43514 -2.25048 0)
(-6.52904 -2.998 0)
(-5.43133 -3.57937 0)
(-4.20226 -3.99059 0)
(-2.89769 -4.23598 0)
(-1.56593 -4.3275 0)
(-0.249785 -4.28369 0)
(1.01025 -4.13356 0)
(2.18558 -3.92067 0)
(3.26168 -3.66082 0)
(4.22607 -3.34856 0)
(5.07076 -2.98068 0)
(5.79672 -2.55449 0)
(6.41156 -2.11722 0)
(6.87865 -1.6268 0)
(7.18824 -1.06261 0)
(7.30864 -0.425746 0)
(7.22558 0.255579 0)
(6.92798 0.95376 0)
(6.41146 1.64723 0)
(5.67536 2.31042 0)
(4.73039 2.9215 0)
(3.58081 3.45603 0)
(2.25386 3.80417 0)
(0.870301 4.01093 0)
(-0.549999 4.05711 0)
(-1.93947 3.88307 0)
(-3.18608 3.56236 0)
(-4.26802 3.1022 0)
(-5.14099 2.53496 0)
(-5.77286 1.90124 0)
(-6.15206 1.2336 0)
(-6.25995 0.561124 0)
(-6.1306 -0.0725937 0)
(3.00436 -0.93254 0)
(4.18381 -1.8151 0)
(5.07968 -1.70852 0)
(5.26399 -0.00686336 0)
(4.40785 2.51667 0)
(2.56408 4.98415 0)
(0.460194 7.12236 0)
(-1.9127 8.5052 0)
(-4.28802 9.34309 0)
(-6.42882 9.49441 0)
(-8.21185 8.91951 0)
(-9.62329 7.60063 0)
(-10.6442 5.55572 0)
(-11.057 2.85211 0)
(-10.9006 -0.375739 0)
(-10.2364 -3.71698 0)
(-9.03285 -6.77781 0)
(-7.39829 -9.28143 0)
(-5.25308 -10.9558 0)
(-2.75875 -11.5855 0)
(-0.207811 -11.129 0)
(2.06119 -9.81936 0)
(3.84201 -7.99679 0)
(5.08835 -5.91702 0)
(5.79828 -3.81074 0)
(6.06641 -1.82284 0)
(6.03235 -0.247418 0)
(5.58135 0.65187 0)
(4.966 0.89714 0)
(4.42473 0.554243 0)
(4.1467 -0.193111 0)
(4.12555 -1.01805 0)
(4.37305 -1.63835 0)
(4.93544 -1.86512 0)
(5.59877 -1.65114 0)
(6.17647 -0.963745 0)
(6.57594 0.192248 0)
(6.69276 1.745 0)
(6.36435 3.6467 0)
(5.51244 5.52418 0)
(4.20861 7.18647 0)
(2.50735 8.5066 0)
(0.500589 9.36222 0)
(-1.68171 9.66048 0)
(-3.88874 9.3588 0)
(-5.96512 8.47335 0)
(-7.76994 7.07908 0)
(-9.19561 5.29325 0)
(-10.1751 3.25286 0)
(-10.6742 1.08965 0)
(-10.6616 -1.04745 0)
(-10.1815 -3.01262 0)
(-9.26096 -4.69604 0)
(-7.97036 -6.01215 0)
(-6.40357 -6.90956 0)
(-4.66764 -7.37963 0)
(-2.87165 -7.45365 0)
(-1.11605 -7.19415 0)
(0.514395 -6.67552 0)
(1.95082 -5.97358 0)
(3.15384 -5.18637 0)
(4.13136 -4.40516 0)
(4.92506 -3.68814 0)
(5.58725 -3.05244 0)
(6.16826 -2.51222 0)
(6.70139 -2.04722 0)
(7.19539 -1.5891 0)
(7.60644 -1.06216 0)
(7.89411 -0.410458 0)
(8.09033 0.294686 0)
(8.17592 1.24903 0)
(8.05983 2.25898 0)
(7.53403 3.34224 0)
(6.6238 4.44995 0)
(5.35387 5.50131 0)
(3.72194 6.41438 0)
(1.77396 7.09657 0)
(-0.392368 7.45282 0)
(-2.64757 7.45036 0)
(-4.85293 7.07205 0)
(-6.86273 6.32921 0)
(-8.54402 5.27003 0)
(-9.79893 3.96987 0)
(-10.5827 2.5207 0)
(-10.8422 1.00744 0)
(-10.6636 -0.485119 0)
(-10.0578 -1.87253 0)
(-9.08627 -3.08263 0)
(-7.8278 -4.07403 0)
(-6.36603 -4.82928 0)
(-4.7797 -5.34815 0)
(-3.13273 -5.64426 0)
(-1.4719 -5.7474 0)
(0.165739 -5.69581 0)
(1.72295 -5.50506 0)
(3.13718 -5.18975 0)
(4.37505 -4.76938 0)
(5.42902 -4.27862 0)
(6.34257 -3.78696 0)
(7.16165 -3.2802 0)
(7.85006 -2.72223 0)
(8.3895 -2.08543 0)
(8.74037 -1.33818 0)
(8.8599 -0.487667 0)
(8.73903 0.421375 0)
(8.35043 1.36154 0)
(7.68097 2.30551 0)
(6.72534 3.21941 0)
(5.49371 4.07654 0)
(3.98855 4.83587 0)
(2.21956 5.34806 0)
(0.337094 5.5973 0)
(-1.55026 5.59596 0)
(-3.36718 5.36878 0)
(-5.01018 4.9002 0)
(-6.40047 4.22107 0)
(-7.47269 3.38719 0)
(-8.19226 2.45995 0)
(-8.51815 1.48024 0)
(-8.48616 0.506333 0)
(-8.13067 -0.396848 0)
(9.11051 -2.77043 0)
(11.2271 -3.37364 0)
(12.1263 -1.82477 0)
(11.273 1.61981 0)
(9.11638 5.44299 0)
(5.97332 8.2151 0)
(0.964233 9.86192 0)
(-4.1453 10.6038 0)
(-8.49572 10.8896 0)
(-11.9062 10.5519 0)
(-14.0761 9.45364 0)
(-15.4629 7.84437 0)
(-15.447 5.38921 0)
(-14.3827 2.36157 0)
(-12.6679 -0.964353 0)
(-10.6599 -4.31556 0)
(-8.49137 -7.67653 0)
(-5.97609 -10.4741 0)
(-3.51695 -12.5374 0)
(-1.25026 -13.6855 0)
(0.946515 -13.3962 0)
(2.79808 -11.8086 0)
(4.21842 -9.60814 0)
(5.2546 -7.06389 0)
(5.81683 -4.5355 0)
(5.97733 -2.16397 0)
(6.11256 -0.163891 0)
(6.1078 1.02026 0)
(6.06745 1.38929 0)
(6.07198 0.864139 0)
(6.10898 -0.363014 0)
(6.56603 -0.977247 0)
(7.15195 -2.19296 0)
(7.98561 -2.86143 0)
(8.83262 -2.47567 0)
(9.55693 -1.43668 0)
(10.0992 -0.0560646 0)
(10.1174 2.03612 0)
(9.5338 4.41007 0)
(8.05819 6.72975 0)
(5.82592 8.84851 0)
(2.9451 10.5769 0)
(-0.445744 11.7092 0)
(-4.12822 12.1103 0)
(-7.82043 11.7264 0)
(-11.2098 10.5849 0)
(-14.0065 8.79509 0)
(-15.992 6.52547 0)
(-17.0396 3.97444 0)
(-17.1453 1.31666 0)
(-16.4616 -1.30667 0)
(-15.0768 -3.75028 0)
(-13.1331 -5.85939 0)
(-10.7903 -7.51814 0)
(-8.20868 -8.66282 0)
(-5.53762 -9.27457 0)
(-2.90362 -9.3786 0)
(-0.399631 -9.03134 0)
(1.90759 -8.31513 0)
(3.94126 -7.35017 0)
(5.64338 -6.34376 0)
(7.01113 -5.42 0)
(8.09771 -4.6238 0)
(9.02339 -3.96701 0)
(9.87617 -3.3689 0)
(10.6911 -2.80933 0)
(11.4842 -2.2366 0)
(12.2247 -1.40719 0)
(12.8719 -0.609063 0)
(13.3208 0.0457523 0)
(13.4719 1.04999 0)
(13.2266 2.57175 0)
(12.4439 4.2976 0)
(11.0779 5.81972 0)
(9.05455 7.3395 0)
(6.36041 8.65139 0)
(3.0685 9.63191 0)
(-0.648408 10.1705 0)
(-4.5411 10.1942 0)
(-8.36858 9.64603 0)
(-11.8652 8.54368 0)
(-14.7755 6.97486 0)
(-16.9016 5.07013 0)
(-18.1373 2.98548 0)
(-18.349 0.892916 0)
(-17.7444 -1.09426 0)
(-16.4065 -2.91986 0)
(-14.4708 -4.48966 0)
(-12.1065 -5.7434 0)
(-9.47817 -6.66719 0)
(-6.7308 -7.27503 0)
(-3.9731 -7.60244 0)
(-1.26434 -7.696 0)
(1.34267 -7.56678 0)
(3.68408 -7.1632 0)
(5.64807 -6.6089 0)
(7.28302 -5.99921 0)
(8.68699 -5.38554 0)
(9.91961 -4.77207 0)
(10.946 -4.12188 0)
(11.7776 -3.39815 0)
(12.4085 -2.56734 0)
(12.767 -1.58162 0)
(12.8465 -0.463948 0)
(12.6001 0.741246 0)
(11.9874 1.99728 0)
(10.9839 3.2654 0)
(9.57948 4.50844 0)
(7.78019 5.69959 0)
(5.58158 6.7827 0)
(2.95413 7.54055 0)
(0.0768568 7.8355 0)
(-2.8658 7.80956 0)
(-5.72788 7.43111 0)
(-8.34423 6.69709 0)
(-10.5614 5.65848 0)
(-12.2526 4.39445 0)
(-13.3393 3.0003 0)
(-13.7172 1.57378 0)
(-13.5202 0.20754 0)
(-12.7854 -1.05849 0)
(25.2358 -4.23332 0)
(27.0499 -3.72591 0)
(25.8078 -1.69334 0)
(22.7546 1.89094 0)
(17.9782 7.26579 0)
(11.3514 12.7777 0)
(2.81894 17.0266 0)
(-6.27535 18.098 0)
(-14.6198 17.4797 0)
(-21.883 15.6702 0)
(-27.2858 12.9777 0)
(-30.2221 9.68475 0)
(-29.944 5.57734 0)
(-27.1569 0.918247 0)
(-22.6176 -3.78209 0)
(-17.2198 -7.87669 0)
(-11.5373 -11.2478 0)
(-5.55762 -14.0803 0)
(-0.0709945 -15.6642 0)
(3.97081 -16.57 0)
(6.6028 -16.116 0)
(7.93849 -14.0509 0)
(8.27162 -11.2527 0)
(8.18346 -7.83195 0)
(7.8077 -4.67878 0)
(7.24595 -2.25496 0)
(6.74093 -0.241529 0)
(6.70061 0.792406 0)
(6.82893 1.02527 0)
(7.47216 0.538532 0)
(8.83532 -0.567953 0)
(11.1197 -1.8233 0)
(13.9749 -2.84679 0)
(16.6748 -3.19956 0)
(18.8999 -2.93087 0)
(20.5755 -2.07829 0)
(21.3652 -0.564292 0)
(21.082 1.72528 0)
(19.7511 5.57832 0)
(17.0937 9.11157 0)
(13.0255 12.2669 0)
(7.49238 14.7793 0)
(0.855617 16.4994 0)
(-6.4556 17.1912 0)
(-13.9216 16.667 0)
(-20.9698 14.9205 0)
(-27.0292 12.1192 0)
(-31.6051 8.54644 0)
(-34.3544 4.56635 0)
(-34.9267 0.580586 0)
(-33.5399 -3.08051 0)
(-30.5313 -6.31084 0)
(-26.243 -9.00247 0)