/*--------------------------------*- C++ -*----------------------------------*\
| =========                 |                                                 |
| \\      /  F ield         | OpenFOAM: The Open Source CFD Toolbox           |
|  \\    /   O peration     | Version:  2206                                  |
|   \\  /    A nd           | Website:  www.openfoam.com                      |
|    \\/     M anipulation  |                                                 |
\*---------------------------------------------------------------------------*/
FoamFile
{
    version     2.0;
    format      ascii;
    arch        "LSB;label=32;scalar=64";
    class       surfaceScalarField;
    location    "19.5";
    object      phi;
}
// * * * * * * * * * * * * * * * * * * * * * * * * * * * * * * * * * * * * * //

dimensions      [0 3 -1 0 0 0 0];

oriented        oriented;

internalField   nonuniform List<scalar> 
3501
(
9.16709e-07
-1.06861e-06
1.51905e-07
1.75029e-06
-1.05056e-06
2.16985e-07
2.57355e-06
-9.22142e-07
9.88781e-08
3.40846e-06
-5.67301e-07
-2.67608e-07
4.15958e-06
7.46105e-08
-8.25731e-07
4.70941e-06
9.09187e-07
-1.45902e-06
5.01174e-06
1.71523e-06
-2.01756e-06
5.1066e-06
2.32697e-06
-2.42184e-06
5.05587e-06
2.71644e-06
-2.6657e-06
4.89976e-06
2.90751e-06
-2.75139e-06
4.66487e-06
2.91751e-06
-2.68262e-06
4.37489e-06
2.7605e-06
-2.47052e-06
4.00221e-06
2.52374e-06
-2.15107e-06
3.49095e-06
2.28332e-06
-1.77206e-06
2.84906e-06
2.03278e-06
-1.39089e-06
2.21036e-06
1.69932e-06
-1.06063e-06
1.75355e-06
1.23474e-06
-7.77917e-07
1.58692e-06
6.54884e-07
-4.88253e-07
1.67865e-06
5.09222e-08
-1.42658e-07
1.95994e-06
-5.34146e-07
2.52857e-07
2.35911e-06
-1.04468e-06
6.45518e-07
2.84517e-06
-1.46085e-06
9.74786e-07
3.40486e-06
-1.77464e-06
1.21494e-06
4.03253e-06
-1.97773e-06
1.35006e-06
4.73068e-06
-2.05537e-06
1.35722e-06
5.5018e-06
-1.9838e-06
1.21267e-06
6.33643e-06
-1.74324e-06
9.08606e-07
7.186e-06
-1.33052e-06
4.80954e-07
7.96649e-06
-7.91487e-07
1.09976e-08
8.60191e-06
-2.14755e-07
-4.20662e-07
9.05598e-06
3.13868e-07
-7.67938e-07
9.32897e-06
7.56216e-07
-1.02921e-06
9.4454e-06
1.1167e-06
-1.23312e-06
9.43252e-06
1.40689e-06
-1.39401e-06
9.3124e-06
1.62104e-06
-1.50092e-06
9.10241e-06
1.75686e-06
-1.54687e-06
8.83071e-06
1.81091e-06
-1.53921e-06
8.51781e-06
1.7983e-06
-1.4854e-06
8.18397e-06
1.72519e-06
-1.39135e-06
7.84853e-06
1.60157e-06
-1.26614e-06
7.5297e-06
1.43813e-06
-1.1193e-06
7.23815e-06
1.25238e-06
-9.60833e-07
6.97085e-06
1.07304e-06
-8.05742e-07
6.71161e-06
9.33815e-07
-6.74575e-07
6.43691e-06
8.6652e-07
-5.91812e-07
6.12922e-06
8.83794e-07
-5.76105e-07
5.78937e-06
9.65584e-07
-6.25735e-07
5.44093e-06
1.06464e-06
-7.16201e-07
5.11547e-06
1.13032e-06
-8.04856e-07
4.83905e-06
1.12386e-06
-8.4744e-07
4.63356e-06
1.01741e-06
-8.11926e-07
4.51242e-06
8.02982e-07
-6.81838e-07
4.47502e-06
5.00823e-07
-4.6343e-07
4.51143e-06
1.50338e-07
-1.86746e-07
4.60724e-06
-2.04789e-07
1.08979e-07
4.74587e-06
-5.33083e-07
3.94455e-07
4.91435e-06
-8.16637e-07
6.48158e-07
5.10152e-06
-1.04601e-06
8.58836e-07
5.29895e-06
-1.21896e-06
1.02153e-06
5.50084e-06
-1.33816e-06
1.13627e-06
5.70354e-06
-1.40874e-06
1.20604e-06
5.90514e-06
-1.43652e-06
1.23491e-06
6.1059e-06
-1.42824e-06
1.22749e-06
6.30844e-06
-1.38992e-06
1.18738e-06
6.51692e-06
-1.32331e-06
1.11483e-06
6.73571e-06
-1.22479e-06
1.006e-06
6.96873e-06
-1.08709e-06
8.54071e-07
7.21652e-06
-9.02595e-07
6.54806e-07
7.4716e-06
-6.68278e-07
4.13195e-07
7.71456e-06
-3.90519e-07
1.47563e-07
7.92233e-06
-9.2467e-08
-1.15302e-07
8.07633e-06
1.96683e-07
-3.50689e-07
8.16863e-06
4.51419e-07
-5.43716e-07
8.20197e-06
6.58975e-07
-6.92316e-07
8.17938e-06
8.14844e-07
-7.92252e-07
8.0909e-06
9.29616e-07
-8.41138e-07
7.93022e-06
9.89641e-07
-8.28963e-07
7.70748e-06
9.89523e-07
-7.66779e-07
7.43975e-06
9.42608e-07
-6.74877e-07
7.14928e-06
8.69277e-07
-5.78815e-07
6.85712e-06
7.91978e-07
-4.9981e-07
6.57861e-06
7.29138e-07
-4.50632e-07
6.32472e-06
6.89071e-07
-4.35176e-07
6.10246e-06
6.70515e-07
-4.48255e-07
5.91416e-06
6.65263e-07
-4.76968e-07
5.75823e-06
6.61076e-07
-5.05145e-07
5.6313e-06
6.44838e-07
-5.17903e-07
5.53119e-06
6.0388e-07
-5.03773e-07
5.45702e-06
5.28868e-07
-4.54695e-07
5.40832e-06
4.17725e-07
-3.69026e-07
5.385e-06
2.73525e-07
-2.50206e-07
5.3872e-06
1.03542e-07
-1.05747e-07
5.41468e-06
-8.18665e-08
5.43874e-08
-2.69661e-07
2.19007e-07
3.72285e-07
-1.4409e-06
8.11911e-07
-1.49019e-06
1.22677e-06
-1.337e-06
1.64004e-06
-9.80567e-07
2.09688e-06
-3.82237e-07
2.57299e-06
4.3308e-07
2.95497e-06
1.33325e-06
3.17782e-06
2.10413e-06
3.23747e-06
2.65678e-06
3.13162e-06
3.01336e-06
2.83934e-06
3.20978e-06
2.34198e-06
3.25786e-06
1.6943e-06
3.17142e-06
1.04641e-06
2.93121e-06
5.77226e-07
2.50197e-06
3.89603e-07
1.88695e-06
4.69252e-07
1.15509e-06
7.55625e-07
3.68511e-07
1.13378e-06
-3.27234e-07
1.56361e-06
-9.63978e-07
2.00871e-06
-1.48978e-06
2.45812e-06
-1.91026e-06
2.91635e-06
-2.23286e-06
3.39633e-06
-2.45771e-06
3.91742e-06
-2.57646e-06
4.4996e-06
-2.56598e-06
5.15317e-06
-2.39681e-06
5.86945e-06
-2.0468e-06
6.608e-06
-1.53003e-06
7.29983e-06
-9.06587e-07
7.87758e-06
-2.63884e-07
8.30709e-06
3.26714e-07
8.58419e-06
8.39592e-07
8.73046e-06
1.26062e-06
8.76646e-06
1.58504e-06
8.7033e-06
1.82002e-06
8.55989e-06
1.95433e-06
8.35456e-06
2.00363e-06
8.10714e-06
1.97261e-06
7.83528e-06
1.87344e-06
7.55553e-06
1.71787e-06
7.27535e-06
1.53256e-06
6.9902e-06
1.35819e-06
6.68843e-06
1.23559e-06
6.36254e-06
1.19241e-06
6.01908e-06
1.22725e-06
5.67915e-06
1.30552e-06
5.3665e-06
1.37728e-06
5.09839e-06
1.39843e-06
4.893e-06
1.32925e-06
4.7656e-06
1.14481e-06
4.71903e-06
8.4955e-07
4.7449e-06
4.7495e-07
4.83058e-06
6.46647e-08
4.96074e-06
-3.34949e-07
5.12161e-06
-6.9396e-07
5.30026e-06
-9.95289e-07
5.48505e-06
-1.2308e-06
5.667e-06
-1.40091e-06
5.84034e-06
-1.51149e-06
6.00312e-06
-1.57152e-06
6.15538e-06
-1.58877e-06
6.29941e-06
-1.57228e-06
6.44069e-06
-1.53119e-06
6.58646e-06
-1.46908e-06
6.74336e-06
-1.38169e-06
6.91589e-06
-1.25962e-06
7.1061e-06
-1.0928e-06
7.31216e-06
-8.74342e-07
7.52616e-06
-6.04515e-07
7.72916e-06
-2.95467e-07
7.90099e-06
2.4852e-08
8.02592e-06
3.26491e-07
8.09522e-06
5.89675e-07
8.10489e-06
8.05176e-07
8.0615e-06
9.73006e-07
7.96303e-06
1.08811e-06
7.80918e-06
1.14337e-06
7.60817e-06
1.14362e-06
7.37322e-06
1.10423e-06
7.1218e-06
1.0434e-06
6.87167e-06
9.79264e-07
6.63679e-06
9.23956e-07
6.42678e-06
8.80524e-07
6.24683e-06
8.45207e-07
6.09816e-06
8.09751e-07
5.9798e-06
7.63195e-07
5.89071e-06
6.92973e-07
5.82886e-06
5.90716e-07
5.79262e-06
4.53961e-07
5.78072e-06
2.8543e-07
5.79216e-06
9.21031e-08
5.82558e-06
-1.1529e-07
-3.21756e-07
1.05667e-07
-1.54657e-06
1.77617e-07
-1.56214e-06
2.31492e-07
-1.39088e-06
3.01784e-07
-1.05086e-06
4.04221e-07
-4.84674e-07
5.74538e-07
2.62763e-07
7.60573e-07
1.14722e-06
8.71253e-07
1.99345e-06
8.34212e-07
2.69383e-06
6.32197e-07
3.21537e-06
3.08947e-07
3.53303e-06
-5.76123e-08
3.62442e-06
-3.44257e-07
3.45807e-06
-4.59696e-07
3.04665e-06
-3.75684e-07
2.41796e-06
-9.6424e-08
1.60769e-06
3.34639e-07
7.24023e-07
8.09957e-07
-1.06807e-07
1.32102e-06
-8.38294e-07
1.80246e-06
-1.44542e-06
2.24205e-06
-1.92938e-06
2.63168e-06
-2.29989e-06
2.97415e-06
-2.57533e-06
3.28436e-06
-2.76792e-06
3.59373e-06
-2.88583e-06
3.94328e-06
-2.91553e-06
4.37107e-06
-2.82461e-06
4.88239e-06
-2.55812e-06
5.46482e-06
-2.11246e-06
6.07616e-06
-1.51793e-06
6.65511e-06
-8.42833e-07
7.15043e-06
-1.68605e-07
7.53685e-06
4.53171e-07
7.80919e-06
9.88279e-07
7.97413e-06
1.42009e-06
8.04781e-06
1.74635e-06
8.04073e-06
1.96141e-06
7.96364e-06
2.08073e-06
7.82849e-06
2.10775e-06
7.64263e-06
2.0593e-06
7.4233e-06
1.9372e-06
7.17541e-06
1.78045e-06
6.89799e-06
1.63562e-06
6.59175e-06
1.54183e-06
6.26691e-06
1.51725e-06
5.94445e-06
1.54971e-06
5.64671e-06
1.60326e-06
5.38988e-06
1.63411e-06
5.18942e-06
1.59889e-06
5.06071e-06
1.45796e-06
5.00933e-06
1.19619e-06
5.02985e-06
8.29034e-07
5.11116e-06
3.93632e-07
5.23862e-06
-6.27903e-08
5.39621e-06
-4.92543e-07
5.57066e-06
-8.68411e-07
5.74866e-06
-1.17328e-06
5.91913e-06
-1.40126e-06
6.07371e-06
-1.55549e-06
6.20816e-06
-1.64595e-06
6.32178e-06
-1.68514e-06
6.41731e-06
-1.68431e-06
6.4968e-06
-1.65177e-06
6.56945e-06
-1.60384e-06
6.64579e-06
-1.54543e-06
6.73563e-06
-1.47152e-06
6.84479e-06
-1.36879e-06
6.97544e-06
-1.22345e-06
7.12644e-06
-1.02535e-06
7.29355e-06
-7.7162e-07
7.46686e-06
-4.68783e-07
7.62846e-06
-1.36749e-07
7.76104e-06
1.93919e-07
7.85214e-06
4.98566e-07
7.89551e-06
7.61807e-07
7.89305e-06
9.75469e-07
7.84687e-06
1.13429e-06
7.7545e-06
1.23574e-06
7.61928e-06
1.27884e-06
7.45082e-06
1.27268e-06
7.26003e-06
1.23419e-06
7.06128e-06
1.17801e-06
6.86891e-06
1.11633e-06
6.69329e-06
1.05615e-06
6.54074e-06
9.97751e-07
6.41442e-06
9.36069e-07
6.31607e-06
8.6155e-07
6.24531e-06
7.6373e-07
6.20029e-06
6.35742e-07
6.17881e-06
4.75434e-07
6.17898e-06
2.85258e-07
6.199e-06
7.20863e-08
6.23619e-06
-1.5248e-07
-3.72322e-07
-1.478e-07
-3.51808e-07
-5.75665e-07
-7.98662e-07
-8.27863e-07
-9.76253e-07
-3.07083e-07
-1.09348e-06
3.79992e-07
-1.14015e-06
1.19389e-06
-1.154e-06
2.0073e-06
-1.17865e-06
2.71847e-06
-1.21205e-06
3.24878e-06
-1.23329e-06
3.55426e-06
-1.21196e-06
3.6031e-06
-1.10147e-06
3.34758e-06
-8.48302e-07
2.79348e-06
-4.1937e-07
1.98902e-06
1.38149e-07
1.05017e-06
7.42212e-07
1.19961e-07
1.34095e-06
-7.05541e-07
1.89448e-06
-1.39183e-06
2.38147e-06
-1.93241e-06
2.79004e-06
-2.33795e-06
3.1133e-06
-2.62314e-06
3.35403e-06
-2.81606e-06
3.52538e-06
-2.93927e-06
3.65711e-06
-3.01756e-06
3.78451e-06
-3.04292e-06
3.96172e-06
-3.00182e-06
4.23495e-06
-2.83135e-06
4.6137e-06
-2.49121e-06
5.06981e-06
-1.97405e-06
5.56064e-06
-1.33366e-06
6.03498e-06
-6.42947e-07
6.45669e-06
3.14644e-08
6.80423e-06
6.4074e-07
7.0681e-06
1.15623e-06
7.25084e-06
1.56361e-06
7.35608e-06
1.85616e-06
7.39763e-06
2.03918e-06
7.38032e-06
2.12506e-06
7.30067e-06
2.13895e-06
7.15936e-06
2.07851e-06
6.96765e-06
1.97216e-06
6.73164e-06
1.87163e-06
6.46438e-06
1.80908e-06
6.18632e-06
1.79531e-06
5.92077e-06
1.81526e-06
5.68734e-06
1.83669e-06
5.50187e-06
1.81958e-06
5.38129e-06
1.71948e-06
5.33386e-06
1.50539e-06
5.35613e-06
1.17392e-06
5.43914e-06
7.46028e-07
5.56998e-06
2.62791e-07
5.73125e-06
-2.24061e-07
5.90684e-06
-6.68134e-07
6.08324e-06
-1.0448e-06
6.24733e-06
-1.33738e-06
6.38951e-06
-1.54345e-06
6.5031e-06
-1.66908e-06
6.58775e-06
-1.7306e-06
6.64508e-06
-1.74247e-06
6.67402e-06
-1.71325e-06
6.68198e-06
-1.65974e-06
6.68111e-06
-1.60296e-06
6.6849e-06
-1.54922e-06
6.70459e-06
-1.49121e-06
6.74753e-06
-1.41173e-06
6.81648e-06
-1.2924e-06
6.91066e-06
-1.11952e-06
7.02658e-06
-8.87539e-07
7.15795e-06
-6.00157e-07
7.29302e-06
-2.71817e-07
7.41578e-06
7.11542e-08
7.51431e-06
4.0004e-07
7.58142e-06
6.947e-07
7.61375e-06
9.43136e-07
7.61296e-06
1.13509e-06
7.57732e-06
1.27138e-06
7.50692e-06
1.34924e-06
7.40524e-06
1.37436e-06
7.28036e-06
1.35907e-06
7.14318e-06
1.3152e-06
7.00539e-06
1.25411e-06
6.87677e-06
1.18477e-06
6.76423e-06
1.11028e-06
6.6726e-06
1.0277e-06
6.60488e-06
9.29272e-07
6.56096e-06
8.0765e-07
6.53919e-06
6.57515e-07
6.53749e-06
4.77129e-07
6.55354e-06
2.69208e-07
6.58455e-06
4.10793e-08
6.62597e-06
-1.93898e-07
-1.31162e-06
-1.55028e-06
-1.71685e-06
-1.79548e-06
-1.80476e-06
-1.76718e-06
-1.69479e-06
-1.57588e-06
-1.35534e-06
-9.74585e-07
-4.22046e-07
2.43616e-07
9.44317e-07
1.61694e-06
2.23485e-06
2.77643e-06
3.22645e-06
3.57508e-06
3.81874e-06
3.95454e-06
3.99059e-06
3.96068e-06
3.91204e-06
3.88109e-06
3.91395e-06
4.05842e-06
4.32361e-06
4.67245e-06
5.06362e-06
5.45781e-06
5.82615e-06
6.14832e-06
6.41267e-06
6.6138e-06
6.75155e-06
6.82812e-06
6.85114e-06
6.80726e-06
6.6955e-06
6.53045e-06
6.33427e-06
6.13203e-06
5.94564e-06
5.79256e-06
5.6944e-06
5.66274e-06
5.69751e-06
5.79167e-06
5.93477e-06
6.10948e-06
6.29558e-06
6.47692e-06
6.63949e-06
6.77417e-06
6.87409e-06
6.93695e-06
6.96499e-06
6.95442e-06
6.90561e-06
6.83651e-06
6.76331e-06
6.69761e-06
6.64826e-06
6.62427e-06
6.63021e-06
6.66606e-06
6.72899e-06
6.81432e-06
6.91512e-06
7.01923e-06
7.11559e-06
7.19619e-06
7.2557e-06
7.29145e-06
7.30376e-06
7.2936e-06
7.25871e-06
7.20111e-06
7.12547e-06
7.04679e-06
6.97219e-06
6.90796e-06
6.85967e-06
6.82971e-06
6.81841e-06
6.82486e-06
6.84722e-06
6.88289e-06
6.9273e-06
5.06218e-06
1.13936e-07
4.94957e-06
1.12614e-07
4.83844e-06
1.11121e-07
4.72901e-06
1.09431e-07
4.62138e-06
1.07635e-07
4.5157e-06
1.05681e-07
4.41235e-06
1.03352e-07
4.31167e-06
1.0068e-07
4.21384e-06
9.78232e-08
4.11896e-06
9.48855e-08
4.02704e-06
9.19144e-08
3.93807e-06
8.89755e-08
3.85192e-06
8.61439e-08
3.76844e-06
8.34837e-08
3.68738e-06
8.10581e-08
3.60847e-06
7.89106e-08
3.53141e-06
7.70622e-08
3.45589e-06
7.5523e-08
3.38161e-06
7.42798e-08
3.3083e-06
7.33081e-08
3.23571e-06
7.25879e-08
3.16362e-06
7.20943e-08
3.09178e-06
7.1836e-08
3.01989e-06
7.18874e-08
2.94757e-06
7.2325e-08
2.87436e-06
7.32116e-08
2.79968e-06
7.46711e-08
2.72286e-06
7.6827e-08
2.64298e-06
7.98768e-08
2.55904e-06
8.39356e-08
2.46981e-06
8.92354e-08
2.37387e-06
9.5936e-08
2.26982e-06
1.0405e-07
2.15632e-06
1.13502e-07
2.03288e-06
1.23437e-07
1.9e-06
1.32885e-07
1.75809e-06
1.41906e-07
1.60721e-06
1.50884e-07
1.44737e-06
1.59841e-07
1.27876e-06
1.68604e-07
1.10197e-06
1.76793e-07
1.83889e-07
9.1808e-07
7.91378e-06
1.6717e-07
7.86068e-06
1.65722e-07
7.80784e-06
1.63954e-07
7.75545e-06
1.6182e-07
7.70377e-06
1.59322e-07
7.65299e-06
1.5646e-07
7.60315e-06
1.53186e-07
7.55434e-06
1.49491e-07
7.50666e-06
1.45503e-07
7.46011e-06
1.41439e-07
7.41468e-06
1.37344e-07
7.37033e-06
1.33318e-07
7.32701e-06
1.29467e-07
7.28461e-06
1.25884e-07
7.24299e-06
1.22681e-07
7.20198e-06
1.1992e-07
7.16139e-06
1.17649e-07
7.12101e-06
1.15903e-07
7.08062e-06
1.14671e-07
7.04001e-06
1.13922e-07
6.99894e-06
1.13653e-07
6.95717e-06
1.13865e-07
6.91442e-06
1.1459e-07
6.87043e-06
1.15871e-07
6.82497e-06
1.17793e-07
6.7777e-06
1.20477e-07
6.72822e-06
1.24149e-07
6.67613e-06
1.28922e-07
6.62082e-06
1.35182e-07
6.56182e-06
1.42941e-07
6.49838e-06
1.52675e-07
6.42968e-06
1.6463e-07
6.35481e-06
1.78918e-07
6.27269e-06
1.9563e-07
6.18122e-06
2.149e-07
6.07736e-06
2.36747e-07
5.95808e-06
2.6119e-07
5.82042e-06
2.88536e-07
5.66114e-06
3.19126e-07
5.4766e-06
3.53138e-07
5.2628e-06
3.90599e-07
4.3129e-07
5.0154e-06
8.55051e-06
1.9118e-07
8.52699e-06
1.89244e-07
8.50408e-06
1.86863e-07
8.48191e-06
1.83984e-07
8.46061e-06
1.80628e-07
8.44026e-06
1.76805e-07
8.42093e-06
1.7252e-07
8.40262e-06
1.67798e-07
8.38536e-06
1.62767e-07
8.36914e-06
1.5766e-07
8.35393e-06
1.5255e-07
8.33967e-06
1.47577e-07
8.32627e-06
1.42868e-07
8.31367e-06
1.38491e-07
8.30166e-06
1.34683e-07
8.29017e-06
1.31411e-07
8.27902e-06
1.28799e-07
8.26803e-06
1.26891e-07
8.25704e-06
1.2566e-07
8.2459e-06
1.2507e-07
8.23443e-06
1.25122e-07
8.22248e-06
1.25808e-07
8.20991e-06
1.27165e-07
8.19652e-06
1.29256e-07
8.18216e-06
1.32153e-07
8.16665e-06
1.35987e-07
8.1498e-06
1.41002e-07
8.13139e-06
1.4733e-07
8.1112e-06
1.5537e-07
8.08898e-06
1.6517e-07
8.06441e-06
1.77238e-07
8.03716e-06
1.91881e-07
8.00677e-06
2.09315e-07
7.97259e-06
2.29808e-07
7.93384e-06
2.53648e-07
7.8894e-06
2.81188e-07
7.83776e-06
3.12827e-07
7.77724e-06
3.49058e-07
7.70589e-06
3.90476e-07
7.62132e-06
4.37705e-07
7.52058e-06
4.91343e-07
5.51631e-07
7.40024e-06
8.66155e-06
2.08218e-07
8.64559e-06
2.05207e-07
8.6307e-06
2.01751e-07
8.61688e-06
1.97805e-07
8.60422e-06
1.93287e-07
8.59284e-06
1.88189e-07
8.5828e-06
1.8256e-07
8.5741e-06
1.76497e-07
8.56671e-06
1.70148e-07
8.56065e-06
1.63723e-07
8.55586e-06
1.57342e-07
8.55225e-06
1.51189e-07
8.54971e-06
1.45409e-07
8.54816e-06
1.40036e-07
8.54739e-06
1.35453e-07
8.5473e-06
1.31507e-07
8.54766e-06
1.28431e-07
8.5483e-06
1.26258e-07
8.54913e-06
1.24828e-07
8.55005e-06
1.24154e-07
8.55093e-06
1.24241e-07
8.55165e-06
1.25081e-07
8.55209e-06
1.26725e-07
8.55217e-06
1.29177e-07
8.55188e-06
1.32449e-07
8.55111e-06
1.36754e-07
8.54981e-06
1.42302e-07
8.54786e-06
1.49285e-07
8.54525e-06
1.57971e-07
8.54182e-06
1.68609e-07
8.53751e-06
1.81548e-07
8.53226e-06
1.97124e-07
8.52593e-06
2.15643e-07
8.51831e-06
2.37437e-07
8.50906e-06
2.62898e-07
8.49771e-06
2.92531e-07
8.48358e-06
3.26958e-07
8.46577e-06
3.66871e-07
8.44314e-06
4.13106e-07
8.4142e-06
4.66646e-07
8.37697e-06
5.28569e-07
5.99517e-07
8.32908e-06
8.67808e-06
2.23174e-07
8.66384e-06
2.19451e-07
8.65039e-06
2.152e-07
8.63788e-06
2.10312e-07
8.62647e-06
2.04699e-07
8.61633e-06
1.98336e-07
8.6076e-06
1.91285e-07
8.60041e-06
1.8369e-07
8.59481e-06
1.75743e-07
8.59086e-06
1.67678e-07
8.5885e-06
1.59702e-07
8.58762e-06
1.52072e-07
8.58796e-06
1.45062e-07
8.58926e-06
1.38737e-07
8.59137e-06
1.33349e-07
8.59404e-06
1.28827e-07
8.59729e-06
1.25186e-07
8.60112e-06
1.22431e-07
8.60534e-06
1.20608e-07
8.60979e-06
1.19705e-07
8.61436e-06
1.19663e-07
8.61902e-06
1.20422e-07
8.62382e-06
1.21922e-07
8.62869e-06
1.24313e-07
8.63341e-06
1.27731e-07
8.63796e-06
1.32205e-07
8.64239e-06
1.37868e-07
8.64674e-06
1.44933e-07
8.65106e-06
1.53649e-07
8.65537e-06
1.64298e-07
8.65973e-06
1.77187e-07
8.6642e-06
1.92656e-07
8.66881e-06
2.11035e-07
8.6735e-06
2.3275e-07
8.67805e-06
2.58343e-07
8.68228e-06
2.88308e-07
8.68603e-06
3.23202e-07
8.68906e-06
3.63843e-07
8.69095e-06
4.11215e-07
8.6908e-06
4.66801e-07
8.68704e-06
5.32322e-07
6.08404e-07
8.67816e-06
8.57619e-06
2.35066e-07
8.56486e-06
2.30779e-07
8.55417e-06
2.25894e-07
8.54429e-06
2.20187e-07
8.53545e-06
2.13542e-07
8.52784e-06
2.05943e-07
8.52165e-06
1.97481e-07
8.51698e-06
1.88361e-07
8.51388e-06
1.78842e-07
8.51237e-06
1.69186e-07
8.51238e-06
1.59688e-07
8.5138e-06
1.5065e-07
8.5165e-06
1.42371e-07
8.52026e-06
1.34973e-07
8.52497e-06
1.28634e-07
8.53041e-06
1.23393e-07
8.53634e-06
1.19256e-07
8.54258e-06
1.16188e-07
8.54904e-06
1.14145e-07
8.55565e-06
1.13095e-07
8.56236e-06
1.12955e-07
8.56913e-06
1.13653e-07
8.5759e-06
1.1515e-07
8.58274e-06
1.17473e-07
8.58977e-06
1.20709e-07
8.597e-06
1.24965e-07
8.6045e-06
1.3037e-07
8.61233e-06
1.37109e-07
8.62055e-06
1.45423e-07
8.62927e-06
1.55584e-07
8.63855e-06
1.67902e-07
8.64848e-06
1.82724e-07
8.65907e-06
2.00445e-07
8.67039e-06
2.21437e-07
8.68263e-06
2.46099e-07
8.69593e-06
2.75012e-07
8.71025e-06
3.08874e-07
8.72559e-06
3.48508e-07
8.74177e-06
3.95036e-07
8.75894e-06
4.49626e-07
8.77739e-06
5.13873e-07
5.90959e-07
8.79483e-06
8.14924e-06
2.34385e-07
8.14954e-06
2.30477e-07
8.1496e-06
2.25832e-07
8.14968e-06
2.20103e-07
8.15009e-06
2.13138e-07
8.15111e-06
2.04921e-07
8.153e-06
1.95593e-07
8.15592e-06
1.85437e-07
8.15997e-06
1.74798e-07
8.16511e-06
1.64041e-07
8.17131e-06
1.53491e-07
8.17852e-06
1.4344e-07
8.18668e-06
1.34212e-07
8.19562e-06
1.26035e-07
8.20519e-06
1.19062e-07
8.21522e-06
1.13362e-07
8.22555e-06
1.08924e-07
8.23605e-06
1.05688e-07
8.24664e-06
1.03559e-07
8.25728e-06
1.02447e-07
8.268e-06
1.02242e-07
8.27881e-06
1.02838e-07
8.28979e-06
1.04168e-07
8.30104e-06
1.06223e-07
8.3127e-06
1.09055e-07
8.32491e-06
1.12756e-07
8.33783e-06
1.17451e-07
8.35162e-06
1.23314e-07
8.36648e-06
1.30567e-07
8.38259e-06
1.39472e-07
8.40017e-06
1.50325e-07
8.41944e-06
1.63456e-07
8.44063e-06
1.79247e-07
8.46396e-06
1.98113e-07
8.48958e-06
2.2048e-07
8.51772e-06
2.46864e-07
8.54868e-06
2.77914e-07
8.58276e-06
3.1443e-07
8.62028e-06
3.57522e-07
8.66123e-06
4.08674e-07
8.70484e-06
4.7026e-07
5.46323e-07
8.74948e-06
6.76905e-06
1.97343e-07
6.80384e-06
1.95692e-07
6.83643e-06
1.93244e-07
6.86711e-06
1.89421e-07
6.89626e-06
1.83985e-07
6.92417e-06
1.77013e-07
6.95101e-06
1.68755e-07
6.97692e-06
1.5952e-07
7.00206e-06
1.49664e-07
7.02654e-06
1.39555e-07
7.05045e-06
1.29587e-07
7.07378e-06
1.20105e-07
7.09659e-06
1.11405e-07
7.1189e-06
1.03722e-07
7.14076e-06
9.72019e-08
7.16221e-06
9.19114e-08
7.18331e-06
8.78281e-08
7.20412e-06
8.48773e-08
7.22473e-06
8.29467e-08
7.24528e-06
8.19019e-08
7.2659e-06
8.16177e-08
7.28676e-06
8.19849e-08
7.30801e-06
8.29099e-08
7.32988e-06
8.43604e-08
7.35257e-06
8.63608e-08
7.37635e-06
8.89778e-08
7.40148e-06
9.23172e-08
7.42827e-06
9.65258e-08
7.45705e-06
1.01791e-07
7.48819e-06
1.08331e-07
7.52212e-06
1.16397e-07
7.55931e-06
1.2626e-07
7.60034e-06
1.38224e-07
7.64582e-06
1.52629e-07
7.69646e-06
1.69843e-07
7.75302e-06
1.903e-07
7.81642e-06
2.14514e-07
7.88772e-06
2.43131e-07
7.96828e-06
2.76958e-07
8.05991e-06
3.17043e-07
8.16489e-06
3.65287e-07
4.25182e-07
8.28603e-06
3.80939e-06
9.81754e-08
3.90492e-06
1.00163e-07
3.99682e-06
1.01338e-07
4.08503e-06
1.01215e-07
4.16943e-06
9.95861e-08
4.24991e-06
9.65288e-08
4.32638e-06
9.22836e-08
4.39872e-06
8.71854e-08
4.46689e-06
8.14902e-08
4.53107e-06
7.53794e-08
4.59146e-06
6.91899e-08
4.64829e-06
6.32795e-08
4.70181e-06
5.78861e-08
4.75236e-06
5.31744e-08
4.80031e-06
4.92478e-08
4.84608e-06
4.61456e-08
4.89005e-06
4.38499e-08
4.93264e-06
4.22892e-08
4.97423e-06
4.13563e-08
5.01519e-06
4.09404e-08
5.0559e-06
4.09115e-08
5.0967e-06
4.11847e-08
5.1379e-06
4.17091e-08
5.17981e-06
4.24507e-08
5.22276e-06
4.34147e-08
5.26709e-06
4.46454e-08
5.31319e-06
4.62193e-08
5.36148e-06
4.82355e-08
5.41245e-06
5.0815e-08
5.46669e-06
5.40974e-08
5.52485e-06
5.82383e-08
5.5877e-06
6.34035e-08
5.65615e-06
6.97739e-08
5.73124e-06
7.75425e-08
5.81417e-06
8.69164e-08
5.9063e-06
9.81713e-08
6.00924e-06
1.11571e-07
6.12492e-06
1.27453e-07
6.25568e-06
1.46197e-07
6.40531e-06
1.67408e-07
6.57794e-06
1.92661e-07
2.05112e-07
6.79801e-06
7.31046e-07
8.31208e-07
9.32546e-07
1.03376e-06
1.13335e-06
1.22988e-06
1.32216e-06
1.40934e-06
1.49083e-06
1.56621e-06
1.6354e-06
1.69868e-06
1.75657e-06
1.80974e-06
1.85899e-06
1.90514e-06
1.94899e-06
1.99128e-06
2.03263e-06
2.07357e-06
2.11448e-06
2.15567e-06
2.19738e-06
2.23983e-06
2.28324e-06
2.32789e-06
2.37411e-06
2.42234e-06
2.47316e-06
2.52726e-06
2.58549e-06
2.6489e-06
2.71867e-06
2.79621e-06
2.88313e-06
2.9813e-06
3.09287e-06
3.22033e-06
3.36652e-06
3.53393e-06
3.72659e-06
3.9317e-06
7.27481e-07
1.90599e-07
5.33571e-07
1.93911e-07
3.37956e-07
1.95615e-07
1.36578e-07
2.01377e-07
-7.7647e-08
2.14226e-07
-3.0735e-07
2.29703e-07
-5.50897e-07
2.43547e-07
-7.79649e-07
2.28752e-07
-9.52753e-07
1.73104e-07
-1.03073e-06
7.79742e-08
-1.01648e-06
-1.42464e-08
-9.34754e-07
-8.17259e-08
-8.44018e-07
-9.0736e-08
-7.73147e-07
-7.0871e-08
-6.81359e-07
-9.17878e-08
-5.22625e-07
-1.58734e-07
-2.88417e-07
-2.34208e-07
-1.07565e-08
-2.77661e-07
2.62775e-07
-2.73531e-07
4.76601e-07
-2.13826e-07
6.0187e-07
-1.25269e-07
6.21471e-07
-1.96006e-08
5.46745e-07
7.47257e-08
3.77422e-07
1.69323e-07
1.30891e-07
2.46531e-07
-1.57593e-07
2.88484e-07
-4.66006e-07
3.08414e-07
-7.49719e-07
2.83713e-07
-9.82479e-07
2.32761e-07
-1.14235e-06
1.5987e-07
-1.21305e-06
7.07001e-08
-1.20247e-06
-1.05765e-08
-1.11414e-06
-8.83335e-08
-9.63635e-07
-1.50504e-07
-7.76648e-07
-1.86987e-07
-5.79663e-07
-1.96985e-07
-3.94835e-07
-1.84828e-07
-2.36781e-07
-1.58054e-07
-1.18422e-07
-1.18358e-07
-4.29556e-08
-7.54669e-08
-1.19403e-08
-3.10154e-08
-1.84662e-08
6.52588e-09
-6.07573e-08
4.22912e-08
-1.34306e-07
7.35489e-08
-2.28799e-07
9.44931e-08
-3.33657e-07
1.04858e-07
-4.36882e-07
1.03224e-07
-5.24559e-07
8.76773e-08
-5.82135e-07
5.75756e-08
-5.98904e-07
1.67694e-08
-5.76251e-07
-2.26537e-08
-5.15661e-07
-6.05894e-08
-4.2803e-07
-8.76316e-08
-3.2777e-07
-1.0026e-07
-2.29002e-07
-9.87679e-08
-1.43725e-07
-8.52771e-08
-8.20081e-08
-6.17171e-08
-5.06135e-08
-3.13946e-08
-4.93527e-08
-1.26057e-09
-7.07314e-08
2.13786e-08
-1.10627e-07
3.98958e-08
-1.58289e-07
4.76618e-08
-2.02063e-07
4.37738e-08
-2.32461e-07
3.03988e-08
-2.4337e-07
1.09084e-08
-2.36384e-07
-6.98548e-09
-2.13402e-07
-2.29819e-08
-1.80639e-07
-3.27627e-08
-1.46139e-07
-3.45003e-08
-1.15422e-07
-3.07175e-08
-9.25898e-08
-2.28319e-08
-8.02193e-08
-1.23705e-08
-7.97032e-08
-5.15964e-10
-8.78135e-08
8.11035e-09
-1.03954e-07
1.61408e-08
-1.25504e-07
2.15501e-08
-1.49234e-07
2.37292e-08
-1.72043e-07
2.28096e-08
-1.91433e-07
1.93898e-08
-2.05431e-07
1.39983e-08
-2.13036e-07
7.60473e-09
-2.14032e-07
9.96199e-10
-2.10617e-07
-3.41523e-09
-2.04494e-07
-6.12266e-09
-1.97926e-07
-6.56798e-09
-1.93007e-07
-4.91966e-09
-1.90979e-07
-2.02788e-09
-1.92348e-07
1.36889e-09
-1.96418e-07
4.07002e-09
-2.01657e-07
5.23912e-09
-2.05991e-07
4.33464e-09
-2.0742e-07
1.42893e-09
-2.04791e-07
-2.62936e-09
-8.55326e-09
4.72768e-06
4.78322e-07
4.39726e-06
5.24323e-07
4.02182e-06
5.71062e-07
3.60742e-06
6.1577e-07
3.16885e-06
6.52803e-07
2.72706e-06
6.7149e-07
2.31119e-06
6.59414e-07
1.93456e-06
6.05389e-07
1.59357e-06
5.14091e-07
1.27002e-06
4.01523e-07
9.67834e-07
2.8794e-07
6.90808e-07
1.95301e-07
4.77188e-07
1.22884e-07
3.65455e-07
4.08612e-08
3.38223e-07
-6.45553e-08
3.81169e-07
-2.0168e-07
4.66681e-07
-3.19721e-07
5.89128e-07
-4.00107e-07
7.35968e-07
-4.20371e-07
8.78176e-07
-3.56034e-07
9.86956e-07
-2.34049e-07
1.00725e-06
-3.98993e-08
8.9807e-07
1.83911e-07
6.92094e-07
3.75299e-07
4.19262e-07
5.19363e-07
1.08411e-07
5.99334e-07
-1.99863e-07
6.16688e-07
-4.9423e-07
5.78079e-07
-7.37069e-07
4.756e-07
-9.03505e-07
3.26306e-07
-9.75655e-07
1.4285e-07
-9.61995e-07
-2.42361e-08
-8.7202e-07
-1.78309e-07
-7.23123e-07
-2.99401e-07
-5.45257e-07
-3.64854e-07
-3.60016e-07
-3.82225e-07
-1.8681e-07
-3.58034e-07
-4.43053e-08
-3.00559e-07
6.22133e-08
-2.24877e-07
1.24238e-07
-1.37492e-07
1.42105e-07
-4.88821e-08
1.21514e-07
2.71169e-08
6.53575e-08
9.84475e-08
-1.58732e-08
1.5478e-07
-1.16263e-07
1.94883e-07
-2.26423e-07
2.15017e-07
-3.34109e-07
2.10911e-07
-4.23521e-07
1.77088e-07
-4.78379e-07
1.12434e-07
-4.82715e-07
2.11053e-08
-4.46555e-07
-5.8814e-08
-3.71396e-07
-1.35747e-07
-2.70278e-07
-1.8875e-07
-1.58249e-07
-2.12289e-07
-4.87689e-08
-2.08248e-07
4.56982e-08
-1.79744e-07
1.13619e-07
-1.29638e-07
1.49756e-07
-6.75317e-08
1.54042e-07
-5.54661e-09
1.29685e-07
4.57356e-08
8.95635e-08
8.00172e-08
4.51245e-08
9.21009e-08
6.28426e-09
8.26141e-08
-1.71881e-08
5.38712e-08
-1.8747e-08
1.24674e-08
-2.06123e-09
-2.36712e-08
2.75199e-08
-5.2563e-08
6.30984e-08
-6.83411e-08
9.94325e-08
-7.08345e-08
1.30732e-07
-6.20174e-08
1.53155e-07
-4.52546e-08
1.65348e-07
-2.45629e-08
1.6763e-07
-2.7982e-09
1.60414e-07
1.53266e-08
1.46091e-07
3.04638e-08
1.28213e-07
3.94279e-08
1.10015e-07
4.19274e-08
9.40692e-08
3.87551e-08
8.24788e-08
3.09802e-08
7.68896e-08
1.95875e-08
7.85691e-08
5.92527e-09
8.57273e-08
-6.16205e-09
9.84332e-08
-1.61211e-08
1.13226e-07
-2.09153e-08
1.27661e-07
-2.10031e-08
1.3989e-07
-1.71485e-08
1.48285e-07
-1.04235e-08
1.52706e-07
-3.05179e-09
1.54189e-07
2.58698e-09
1.54525e-07
4.90291e-09
1.55659e-07
3.20148e-09
1.59103e-07
-2.01573e-09
1.67529e-07
-1.1055e-08
-2.28282e-08
7.25551e-06
6.23053e-07
7.08335e-06
6.96481e-07
6.88069e-06
7.73719e-07
6.6464e-06
8.50057e-07
6.38239e-06
9.16818e-07
6.09182e-06
9.62064e-07
5.77847e-06
9.72762e-07
5.44489e-06
9.38966e-07
5.09881e-06
8.60168e-07
4.75413e-06
7.46208e-07
4.43165e-06
6.10414e-07
4.15455e-06
4.72406e-07
3.93968e-06
3.37755e-07
3.76785e-06
2.12692e-07
3.60856e-06
9.4736e-08
3.4087e-06
-1.82772e-09
3.15915e-06
-7.0165e-08
2.84332e-06
-8.42782e-08
2.4996e-06
-7.66508e-08
2.22235e-06
-7.87816e-08
2.04006e-06
-5.17661e-08
1.93555e-06
6.46164e-08
1.82865e-06
2.90813e-07
1.66081e-06
5.43129e-07
1.42561e-06
7.54565e-07
1.14146e-06
8.8349e-07
8.37825e-07
9.2032e-07
5.48895e-07
8.6701e-07
2.9535e-07
7.29145e-07
1.01883e-07
5.19773e-07
-1.79584e-08
2.62691e-07
-4.86639e-08
6.46943e-09
-8.35857e-09
-2.18614e-07
8.42337e-08
-3.91994e-07
2.13938e-07
-4.94558e-07
3.54084e-07
-5.22372e-07
4.82926e-07
-4.86876e-07
5.84356e-07
-4.01988e-07
6.51701e-07
-2.92222e-07
6.85382e-07
-1.71173e-07
6.85199e-07
-4.86993e-08
6.5251e-07
5.9806e-08
5.92964e-07
1.57994e-07
5.13693e-07
2.3405e-07
4.23462e-07
2.85114e-07
3.2931e-07
3.09169e-07
2.3921e-07
3.01011e-07
1.6613e-07
2.50168e-07
1.25416e-07
1.53147e-07
1.28958e-07
1.75631e-08
1.76375e-07
-1.06231e-07
2.55697e-07
-2.15069e-07
3.50235e-07
-2.83287e-07
4.49513e-07
-3.11567e-07
5.48491e-07
-3.07225e-07
6.44687e-07
-2.75941e-07
7.269e-07
-2.11851e-07
7.86653e-07
-1.27285e-07
8.17123e-07
-3.6016e-08
8.25028e-07
3.7831e-08
8.16013e-07
8.90321e-08
8.00643e-07
1.0747e-07
7.83247e-07
1.0001e-07
7.7231e-07
6.48084e-08
7.74503e-07
1.02744e-08
7.90409e-07
-3.95771e-08
8.17097e-07
-7.92513e-08
8.48273e-07
-9.95173e-08
8.79531e-07
-1.02092e-07
9.07306e-07
-8.97916e-08
9.26752e-07
-6.47009e-08
9.36438e-07
-3.4249e-08
9.35624e-07
-1.9841e-09
9.2952e-07
2.14304e-08
9.19133e-07
4.08507e-08
9.07513e-07
5.1048e-08
8.9693e-07
5.25106e-08
8.88842e-07
4.68435e-08
8.84513e-07
3.53091e-08
8.85688e-07
1.84123e-08
8.9278e-07
-1.16654e-09
9.0528e-07
-1.86623e-08
9.22502e-07
-3.33425e-08
9.40598e-07
-3.90115e-08
9.58188e-07
-3.85931e-08
9.73522e-07
-3.24829e-08
9.84234e-07
-2.11347e-08
9.90199e-07
-9.01729e-09
9.92673e-07
1.12958e-10
9.9326e-07
4.31644e-09
9.93597e-07
2.8642e-09
9.96557e-07
-4.97577e-09
1.00376e-06
-1.82627e-08
-3.53547e-08
8.26727e-06
6.84865e-07
8.18822e-06
7.75538e-07
8.0874e-06
8.74536e-07
7.96041e-06
9.7705e-07
7.8047e-06
1.07252e-06
7.62006e-06
1.1467e-06
7.40658e-06
1.18624e-06
7.16459e-06
1.18096e-06
6.89817e-06
1.12659e-06
6.61618e-06
1.0282e-06
6.32947e-06
8.97123e-07
6.05747e-06
7.444e-07
5.81061e-06
5.84623e-07
5.58858e-06
4.34717e-07
5.38832e-06
2.94994e-07
5.21085e-06
1.75642e-07
5.0484e-06
9.22872e-08
4.89982e-06
6.43061e-08
4.72806e-06
9.51099e-08
4.478e-06
1.71272e-07
4.13369e-06
2.92545e-07
3.76435e-06
4.33962e-07
3.46396e-06
5.91198e-07
3.23068e-06
7.76412e-07
3.01995e-06
9.6529e-07
2.79473e-06
1.10871e-06
2.54586e-06
1.1692e-06
2.28139e-06
1.13147e-06
2.0164e-06
9.94138e-07
1.7769e-06
7.59275e-07
1.59296e-06
4.46635e-07
1.49443e-06
1.04991e-07
1.45836e-06
-1.82537e-07
1.48068e-06
-4.14319e-07
1.53722e-06
-5.511e-07
1.60715e-06
-5.92299e-07
1.67957e-06
-5.59293e-07
1.73229e-06
-4.54711e-07
1.75679e-06
-3.16725e-07
1.75178e-06
-1.66159e-07
1.72436e-06
-2.12813e-08
1.67743e-06
1.06742e-07
1.62204e-06
2.13382e-07
1.56365e-06
2.92435e-07
1.50919e-06
3.39582e-07
1.46193e-06
3.56425e-07
1.42747e-06
3.35472e-07
1.41752e-06
2.60116e-07
1.43947e-06
1.31199e-07
1.49328e-06
-3.62492e-08
1.57871e-06
-1.91663e-07
1.66231e-06
-2.98667e-07
1.72541e-06
-3.46384e-07
1.7678e-06
-3.5396e-07
1.79556e-06
-3.34987e-07
1.82045e-06
-3.00833e-07
1.85444e-06
-2.45838e-07
1.90306e-06
-1.75908e-07
1.96292e-06