/*--------------------------------*- C++ -*----------------------------------*\
| =========                 |                                                 |
| \\      /  F ield         | OpenFOAM: The Open Source CFD Toolbox           |
|  \\    /   O peration     | Version:  2206                                  |
|   \\  /    A nd           | Website:  www.openfoam.com                      |
|    \\/     M anipulation  |                                                 |
\*---------------------------------------------------------------------------*/
FoamFile
{
    version     2.0;
    format      ascii;
    arch        "LSB;label=32;scalar=64";
    class       volVectorField;
    location    "19.7001";
    object      ddtCorrDdt0(U);
}
// * * * * * * * * * * * * * * * * * * * * * * * * * * * * * * * * * * * * * //

dimensions      [0 1 -2 0 0 0 0];

internalField   nonuniform List<vector> 
1813
(
(-2.29981 102.165 0)
(-24.1555 104.03 0)
(-44.2393 99.4166 0)
(-62.0497 88.8671 0)
(-77.7165 74.0309 0)
(-90.7918 56.1985 0)
(-101.226 36.4997 0)
(-109.617 15.9104 0)
(-116.65 -4.94954 0)
(-122.986 -25.8007 0)
(-128.753 -46.2261 0)
(-133.317 -65.6081 0)
(-134.943 -82.5712 0)
(-129.927 -93.8618 0)
(-118.175 -98.6486 0)
(-99.648 -95.8803 0)
(-75.9096 -86.9504 0)
(-49.4763 -73.7733 0)
(-19.7486 -59.9856 0)
(17.1428 -38.8574 0)
(53.2493 -17.9763 0)
(85.2086 4.03027 0)
(107.808 18.1838 0)
(118.69 23.2009 0)
(118.486 20.3024 0)
(112.977 12.928 0)
(103.794 4.00534 0)
(92.8382 -3.72074 0)
(81.5407 -8.04944 0)
(70.8926 -8.03825 0)
(61.3356 -3.75191 0)
(52.8136 4.191 0)
(44.7202 15.0016 0)
(35.7028 27.2541 0)
(26.0721 39.3479 0)
(16.1674 50.382 0)
(5.67755 58.9263 0)
(-5.03945 64.0858 0)
(-15.4544 65.2877 0)
(-24.8227 62.3096 0)
(-32.9343 56.0369 0)
(-39.904 47.3628 0)
(-45.7913 36.8602 0)
(-50.7632 25.1037 0)
(-54.7594 12.6256 0)
(-57.7517 -0.12771 0)
(-60.1481 -12.9733 0)
(-61.8264 -25.661 0)
(-62.6886 -37.6558 0)
(-62.2885 -48.2436 0)
(-59.4778 -56.2256 0)
(-53.3111 -60.5335 0)
(-44.3556 -61.6482 0)
(-32.9914 -59.7076 0)
(-19.8818 -55.2725 0)
(-5.14617 -49.0984 0)
(11.8171 -41.1108 0)
(28.7791 -29.9657 0)
(43.8981 -19.3308 0)
(55.3149 -10.7676 0)
(61.7461 -4.66039 0)
(62.5488 -0.674663 0)
(60.1152 1.94013 0)
(55.5437 4.31321 0)
(49.7796 7.24084 0)
(43.4432 11.0615 0)
(36.8691 15.9696 0)
(30.0446 22.0014 0)
(22.7129 28.2511 0)
(15.6316 34.2987 0)
(8.77527 39.6335 0)
(2.04919 43.6194 0)
(-4.44719 45.6691 0)
(-10.3689 45.2344 0)
(-15.3847 42.2867 0)
(-19.6296 37.6316 0)
(-23.0655 31.631 0)
(-25.6972 24.6903 0)
(-27.6699 17.1974 0)
(-29.1676 9.47561 0)
(-30.1155 1.72069 0)
(-30.44 -5.94656 0)
(-30.3491 -13.4207 0)
(-29.742 -20.4072 0)
(-28.6165 -26.6399 0)
(-26.7937 -31.8726 0)
(-23.9635 -35.8058 0)
(-19.9013 -38.0879 0)
(-14.9236 -38.9994 0)
(-9.2539 -38.4664 0)
(-3.11699 -36.5595 0)
(3.42902 -33.4442 0)
(10.3106 -29.2791 0)
(17.1342 -24.1271 0)
(23.0878 -18.1902 0)
(27.6252 -12.1254 0)
(30.4872 -6.52276 0)
(31.4761 -1.57051 0)
(31.0542 2.88392 0)
(29.498 7.22347 0)
(26.9823 11.6325 0)
(23.6637 16.1774 0)
(19.6393 20.6974 0)
(15.1957 24.9053 0)
(10.588 28.6355 0)
(5.81941 31.5054 0)
(1.06379 33.0639 0)
(-3.32983 32.705 0)
(-7.18323 30.7839 0)
(-10.4227 27.5497 0)
(-12.9564 23.2988 0)
(-14.8004 18.3809 0)
(-16.1387 13.0921 0)
(-17.1896 7.66134 0)
(-17.8313 2.28642 0)
(-18.0994 -2.97976 0)
(-18.0419 -8.1396 0)
(-17.52 -12.8683 0)
(-16.6263 -17.004 0)
(-15.4016 -20.5073 0)
(-13.7125 -23.2245 0)
(-6.5334 123.752 0)
(-26.2273 124.363 0)
(-43.7817 117.397 0)
(-58.9967 104.774 0)
(-71.8048 87.6843 0)
(-82.1061 67.4683 0)
(-90.0278 45.3733 0)
(-95.9035 22.5909 0)
(-99.6681 0.0558157 0)
(-102.531 -21.7069 0)
(-104.854 -42.3862 0)
(-107.164 -61.7499 0)
(-109.759 -80.0648 0)
(-111.589 -96.2837 0)
(-109.753 -107.594 0)
(-101.326 -111.276 0)
(-87.1265 -108.522 0)
(-67.6611 -99.5456 0)
(-45.7638 -86.3166 0)
(-21.9568 -72.5439 0)
(9.02064 -57.6632 0)
(43.6441 -32.2789 0)
(74.1081 -8.08001 0)
(98.9536 7.79804 0)
(115.529 15.7453 0)
(121.493 17.1205 0)
(118.208 13.7383 0)
(109.436 9.02679 0)
(97.1036 5.7479 0)
(83.3121 5.31895 0)
(69.6521 8.37309 0)
(57.0589 15.228 0)
(45.3856 25.8454 0)
(33.4312 37.8141 0)
(22.5243 49.8881 0)
(12.1416 60.8146 0)
(1.99309 69.309 0)
(-7.76084 74.1887 0)
(-16.5783 74.3714 0)
(-24.0344 70.0549 0)
(-30.3693 62.6889 0)
(-35.5015 52.9154 0)
(-39.5006 41.4658 0)
(-42.7455 28.923 0)
(-45.6053 15.6938 0)
(-47.6419 2.07012 0)
(-48.83 -11.7026 0)
(-49.2696 -25.1674 0)
(-48.9354 -37.608 0)
(-48.1358 -48.7051 0)
(-46.8037 -58.2185 0)
(-44.3671 -65.4867 0)
(-39.8517 -69.1504 0)
(-33.4962 -69.7409 0)
(-25.3621 -67.4934 0)
(-15.5922 -62.5232 0)
(-4.39397 -55.3703 0)
(8.54726 -46.6501 0)
(23.043 -35.8867 0)
(36.3292 -23.1826 0)
(47.3677 -11.7606 0)
(54.6049 -2.64582 0)
(56.7743 4.08654 0)
(55.0047 9.11093 0)
(50.8009 13.616 0)
(44.8716 18.3327 0)
(37.9352 23.8162 0)
(30.4211 30.0981 0)
(22.6676 36.1082 0)
(15.3938 41.7506 0)
(8.41561 46.625 0)
(1.81041 50.2025 0)
(-4.23106 51.7244 0)
(-9.32011 50.2372 0)
(-13.5982 46.6012 0)
(-17.0698 41.1156 0)
(-19.6439 34.2576 0)
(-21.3304 26.5725 0)
(-22.3967 18.5441 0)
(-23.2995 10.4133 0)
(-23.9809 2.16841 0)
(-24.064 -6.10153 0)
(-23.7802 -14.1798 0)
(-22.8733 -21.6327 0)
(-21.4744 -28.2025 0)
(-19.7029 -33.7931 0)
(-17.5384 -38.3632 0)
(-14.8527 -41.7551 0)
(-11.5018 -43.418 0)
(-7.7137 -43.3856 0)
(-3.68144 -41.9399 0)
(0.616437 -39.0954 0)
(5.0742 -34.958 0)
(9.54432 -29.7098 0)
(13.8913 -23.5778 0)
(17.9422 -16.7622 0)
(21.3186 -9.55303 0)
(23.4943 -2.74882 0)
(24.5444 3.06327 0)
(24.3912 8.74132 0)
(22.7871 14.4205 0)
(20.0265 19.77 0)
(16.6214 24.7887 0)
(12.8478 29.3836 0)
(8.82489 33.3082 0)
(4.66504 36.2603 0)
(0.620796 37.5762 0)
(-2.98919 36.7132 0)
(-6.07532 34.1821 0)
(-8.54762 30.2026 0)
(-10.2985 25.1757 0)
(-11.2896 19.5979 0)
(-11.6932 13.9257 0)
(-12.1002 8.31741 0)
(-12.6105 2.68723 0)
(-12.92 -2.80726 0)
(-13.0722 -8.47411 0)
(-12.6733 -13.6577 0)
(-11.9148 -18.1113 0)
(-10.8962 -21.87 0)
(-9.58981 -24.8998 0)
(-11.4373 143.536 0)
(-28.2965 142.065 0)
(-42.8307 132.885 0)
(-54.5839 117.486 0)
(-63.3347 97.5358 0)
(-69.3529 74.8049 0)
(-73.5836 50.7333 0)
(-77.002 26.3457 0)
(-79.2411 2.46434 0)
(-80.0268 -20.3932 0)
(-80.4076 -41.384 0)
(-80.9302 -60.4203 0)
(-82.2818 -77.9874 0)
(-84.3876 -94.4043 0)
(-86.0735 -109.091 0)
(-84.6294 -119.238 0)
(-77.1982 -121.292 0)
(-65.3038 -116.711 0)
(-50.1935 -107.166 0)
(-27.2007 -95.8798 0)
(-12.8464 -80.1979 0)
(4.58409 -62.9656 0)
(37.8726 -41.085 0)
(67.124 -18.7548 0)
(87.7725 -1.796 0)
(102.952 9.91995 0)
(108.299 15.9847 0)
(104.989 17.8661 0)
(96.6499 18.5075 0)
(84.8498 19.7922 0)
(71.4758 22.9498 0)
(57.8792 29.3401 0)
(44.4105 39.2622 0)
(31.2651 50.0679 0)
(19.7974 61.1974 0)
(9.26261 71.3347 0)
(-0.459624 79.1825 0)
(-9.18196 83.2393 0)
(-16.3346 81.8138 0)
(-22.2088 76.4289 0)
(-26.8609 67.7608 0)
(-30.1705 56.6862 0)
(-32.1573 44.1801 0)
(-33.2826 31.0609 0)
(-34.6828 17.583 0)
(-36.2031 3.58098 0)
(-36.7739 -11.0551 0)
(-36.5822 -25.5553 0)
(-35.5669 -38.741 0)
(-34.3108 -50.2758 0)
(-32.9564 -60.1019 0)
(-31.3892 -67.7496 0)
(-29.3651 -72.6721 0)
(-26.2533 -74.3139 0)
(-22.1806 -73.7174 0)
(-16.8453 -70.8705 0)
(-9.92658 -65.5794 0)
(-1.86026 -57.6951 0)
(6.93053 -47.7742 0)
(16.5824 -36.4678 0)
(26.7341 -23.5602 0)
(34.6255 -9.67071 0)
(40.331 1.90009 0)
(43.5596 10.3507 0)
(43.6159 17.6225 0)
(40.3622 24.274 0)
(35.0687 30.8554 0)
(28.5395 37.2412 0)
(21.9037 43.3251 0)
(15.4391 48.8175 0)
(9.14666 53.4454 0)
(3.20615 56.5828 0)
(-1.99171 57.0848 0)
(-6.28628 54.8176 0)
(-9.87028 50.3175 0)
(-12.6966 43.8871 0)
(-14.6462 36.0742 0)
(-15.6522 27.5893 0)
(-15.8894 19.1498 0)
(-16.2408 10.9955 0)
(-16.9216 2.6368 0)
(-17.1574 -6.04057 0)
(-17.1191 -14.7695 0)
(-16.3608 -22.8183 0)
(-15.1251 -29.8737 0)
(-13.5549 -35.8539 0)
(-11.6818 -40.6731 0)
(-9.5489 -44.2465 0)
(-7.1774 -46.3465 0)
(-4.68661 -46.4466 0)
(-2.25494 -45.2042 0)
(0.231484 -42.5825 0)
(2.77951 -38.5003 0)
(5.27841 -33.0748 0)
(7.55227 -26.5981 0)
(9.42341 -19.5141 0)
(10.9863 -12.3081 0)
(12.6688 -5.09868 0)
(13.9897 2.13037 0)
(15.1815 9.18581 0)
(15.0423 16.0698 0)
(13.5163 22.366 0)
(11.3615 27.9691 0)
(8.83519 32.8566 0)
(6.04907 36.9284 0)
(3.19287 39.8849 0)
(0.575252 40.8524 0)
(-1.59569 39.5676 0)
(-3.40633 36.5042 0)
(-4.86982 31.8912 0)
(-5.91629 26.1616 0)
(-6.43316 19.9286 0)
(-6.28054 13.9028 0)
(-5.96421 8.55296 0)
(-6.38273 3.33806 0)
(-7.12816 -2.55155 0)
(-8.02258 -8.5251 0)
(-8.01429 -14.0321 0)
(-7.66197 -18.8124 0)
(-7.1273 -22.8827 0)
(-6.28758 -26.2112 0)
(-16.6926 160.306 0)
(-29.6462 156.439 0)
(-40.102 144.566 0)
(-47.843 126.104 0)
(-52.6237 103.192 0)
(-54.4977 78.1249 0)
(-54.1685 52.869 0)
(-53.979 28.21 0)
(-54.4758 3.25488 0)
(-53.2864 -20.7798 0)
(-52.2273 -41.6159 0)
(-52.3922 -59.7827 0)
(-54.0581 -76.4938 0)
(-56.7753 -92.2552 0)
(-60.0433 -107.136 0)
(-62.8771 -120.241 0)
(-62.2647 -128.382 0)
(-55.8729 -128.435 0)
(-45.2558 -122.439 0)
(-29.3545 -111.238 0)
(-15.4221 -96.2603 0)
(-7.03728 -81.3433 0)
(15.6156 -66.1924 0)
(33.8381 -45.4085 0)
(53.0232 -21.6758 0)
(70.0974 -2.83302 0)
(81.225 10.9576 0)
(84.9583 20.5201 0)
(81.4143 26.3872 0)
(73.6725 30.7164 0)
(63.1066 35.8163 0)
(50.9592 43.4218 0)
(38.0291 52.653 0)
(26.0697 62.5366 0)
(15.358 72.4751 0)
(5.6081 81.4771 0)
(-3.02622 88.1981 0)
(-10.0346 90.5411 0)
(-15.2259 87.67 0)
(-19.1859 80.9745 0)
(-22.0031 70.9657 0)
(-23.6575 58.5955 0)
(-24.0168 45.0224 0)
(-23.063 31.5468 0)
(-22.284 18.5905 0)
(-23.2138 4.27014 0)
(-23.2647 -11.488 0)
(-22.6865 -26.3661 0)
(-21.4532 -39.6791 0)
(-20.2854 -51.3167 0)
(-19.3633 -61.1975 0)
(-19.1163 -69.1352 0)
(-18.6307 -74.6445 0)
(-16.3291 -77.4175 0)
(-13.3895 -77.302 0)
(-10.1964 -75.262 0)
(-7.18177 -70.7783 0)
(-4.19881 -63.7146 0)
(-1.03063 -53.9677 0)
(2.36689 -42.2831 0)
(5.93983 -30.2984 0)
(11.1972 -17.8638 0)
(17.9505 -6.32629 0)
(25.3572 5.49986 0)
(29.5057 16.9241 0)
(29.9393 27.3631 0)
(27.3549 36.3009 0)
(23.4096 43.6371 0)
(18.8713 49.6352 0)
(14.0258 54.7844 0)
(9.03714 59.0943 0)
(4.35107 61.7523 0)
(0.516638 61.2844 0)
(-2.50218 58.3968 0)
(-4.98692 53.1988 0)
(-7.02569 45.9945 0)
(-8.577 37.3256 0)
(-9.44712 28.0205 0)
(-9.31403 19.121 0)
(-8.82919 11.4117 0)
(-9.66798 3.45868 0)
(-10.2656 -5.75774 0)
(-10.5381 -15.0542 0)
(-9.87066 -23.5652 0)
(-8.89933 -31.0017 0)
(-7.74616 -37.3559 0)
(-6.28271 -42.5509 0)
(-4.64757 -46.4332 0)
(-2.98351 -48.4896 0)
(-1.4348 -48.3188 0)
(-0.188003 -46.849 0)
(0.780893 -44.1523 0)
(1.61749 -40.1414 0)
(2.30323 -34.7124 0)
(2.78584 -27.9985 0)
(2.9981 -20.4623 0)
(2.55553 -12.6788 0)
(2.70143 -5.37108 0)
(3.35897 -0.715247 0)
(4.82997 7.68176 0)
(5.5181 16.3063 0)
(5.23074 23.3516 0)
(4.57623 29.5739 0)
(3.75172 34.8523 0)
(2.86179 39.0993 0)
(2.09111 41.9836 0)
(1.58482 42.4712 0)
(1.31902 40.8788 0)
(1.00619 37.6172 0)
(0.515932 32.8402 0)
(-0.111623 26.809 0)
(-0.762963 20.0989 0)
(-1.1761 13.4846 0)
(-1.12542 7.83397 0)
(-1.54603 3.9419 0)
(-2.58223 -0.107952 0)
(-3.93125 -8.24481 0)
(-4.3752 -13.8622 0)
(-4.42625 -18.9197 0)
(-4.27669 -23.3036 0)
(-3.84389 -26.9587 0)
(-23.3858 172.615 0)
(-30.9223 166.288 0)
(-35.954 151.701 0)
(-38.5767 130.368 0)
(-38.8252 104.555 0)
(-36.7434 76.8763 0)
(-32.1482 50.0701 0)
(-27.4222 26.2134 0)
(-25.8585 2.84638 0)
(-22.862 -22.9728 0)
(-19.9405 -42.7648 0)
(-20.4335 -58.494 0)
(-24.6663 -73.153 0)
(-29.6871 -88.1347 0)
(-35.061 -102.994 0)
(-40.2213 -116.829 0)
(-44.0274 -128.53 0)
(-44.1456 -134.866 0)
(-39.5795 -132.661 0)
(-31.4554 -123.388 0)
(-19.8292 -109.533 0)
(-6.66487 -94.7303 0)
(4.98517 -78.1194 0)
(12.9967 -59.862 0)
(26.2021 -40.3004 0)
(37.6519 -18.335 0)
(48.163 1.55892 0)
(56.1022 17.4589 0)
(58.3627 29.7503 0)
(54.892 38.7823 0)
(47.3158 46.7328 0)
(37.3697 55.0509 0)
(26.9601 63.9701 0)
(17.1804 73.1347 0)
(8.23653 82.0584 0)
(0.156397 89.999 0)
(-6.5921 95.4046 0)
(-11.1984 95.5192 0)
(-13.8979 91.3464 0)
(-15.2207 83.4071 0)
(-15.5821 72.2238 0)
(-15.3096 58.6127 0)
(-14.329 43.8156 0)
(-12.4722 29.5472 0)
(-10.757 16.9075 0)
(-10.4086 6.01547 0)
(-8.56723 -11.8757 0)
(-6.57651 -28.5332 0)
(-5.2697 -41.5138 0)
(-4.88009 -52.318 0)
(-4.94648 -61.1792 0)
(-6.59919 -68.354 0)
(-8.54631 -74.688 0)
(-8.5062 -79.3717 0)
(-7.09206 -80.0015 0)
(-4.79979 -77.342 0)
(-3.94954 -72.0514 0)
(-3.21196 -64.4902 0)
(-2.49831 -55.0875 0)
(-1.59668 -44.2442 0)
(0.172104 -32.3884 0)
(0.610054 -20.4954 0)
(1.52249 -9.76627 0)
(3.84562 -3.15379 0)
(7.28432 13.4721 0)
(9.16812 25.7923 0)
(11.3576 36.2372 0)
(12.0564 45.369 0)
(11.1048 52.9342 0)
(8.6091 59.0897 0)
(5.94576 63.5845 0)
(3.59972 65.3923 0)
(1.98054 64.0969 0)
(0.831773 60.6 0)
(-0.189511 55.0969 0)
(-1.28409 47.7153 0)
(-2.50299 38.6658 0)
(-3.61734 28.5381 0)
(-3.81653 18.5341 0)
(-3.49042 10.2196 0)
(-3.534 4.49462 0)
(-3.81959 -4.93241 0)
(-3.69484 -15.6629 0)
(-2.95297 -24.4666 0)
(-2.20273 -32.0484 0)
(-1.61767 -38.4238 0)
(-1.16769 -43.5802 0)
(-0.777491 -47.3839 0)
(-0.224852 -49.523 0)
(0.42949 -49.3225 0)
(2.08949 -47.6705 0)
(2.71289 -44.5782 0)
(2.81365 -40.076 0)
(2.48641 -34.2249 0)
(1.67756 -27.2171 0)
(0.481454 -19.4066 0)
(-0.903381 -11.6083 0)
(-1.6347 -4.94984 0)
(-2.08506 -0.969905 0)
(-2.28978 7.01661 0)
(-2.29765 15.9289 0)
(-2.09391 23.0816 0)
(-1.72984 29.3367 0)
(-1.21595 34.49 0)
(-0.489598 38.4837 0)
(0.456409 41.1003 0)
(1.55712 41.5688 0)
(2.46756 40.2443 0)
(3.06616 37.4275 0)
(3.2249 33.1109 0)
(2.92645 27.4932 0)
(2.25778 21.0669 0)
(1.34689 14.4862 0)
(0.434897 8.57326 0)
(-0.15656 4.39969 0)
(-0.79183 1.14163 0)
(-1.6021 -7.59856 0)
(-2.04757 -13.4695 0)
(-2.20269 -18.8166 0)
(-2.12622 -23.4671 0)
(-1.89845 -27.3189 0)
(-0.441751 -27.759 0)
(-6.31573 0.538311 0)
(-7.25957 0.421266 0)
(-7.99443 0.319362 0)
(-8.54954 0.234371 0)
(-8.95498 0.166799 0)
(-9.22631 0.104968 0)
(-9.36751 0.0386697 0)
(-9.36267 -0.039246 0)
(-9.171 -0.146789 0)
(-8.74359 -0.283571 0)
(-8.03323 -0.444848 0)
(-7.00343 -0.618394 0)
(-5.64697 -0.784982 0)
(-3.99563 -0.922023 0)
(-2.1208 -1.01653 0)
(-0.131246 -1.03857 0)
(1.81264 -1.00118 0)
(3.56051 -0.872104 0)
(5.05675 -0.732945 0)
(6.2603 -0.55993 0)
(7.12947 -0.377939 0)
(7.66408 -0.206953 0)
(7.90216 -0.064163 0)
(7.91205 0.0346499 0)
(7.77773 0.0912074 0)
(7.57969 0.109326 0)
(7.37319 0.102753 0)
(7.17767 0.0981992 0)
(6.97538 0.107494 0)
(6.72318 0.146503 0)
(6.3585 0.217481 0)
(5.82984 0.314925 0)
(5.05133 0.482445 0)
(3.9317 0.659467 0)
(2.64891 0.907209 0)
(1.14856 0.947527 0)
(-0.667629 0.998324 0)
(-2.57947 1.00659 0)
(-4.48331 0.964524 0)
(-6.27125 0.869626 0)
(-7.83839 0.725908 0)
(-9.09461 0.542057 0)
(-9.96995 0.329585 0)
(-10.4265 0.107823 0)
(-10.4538 -0.109323 0)
(-10.088 -0.310278 0)
(-9.33688 -0.480727 0)
(-8.28662 -0.606127 0)
(-7.05211 -0.687233 0)
(-5.66971 -0.730378 0)
(-4.2289 -0.739595 0)
(-2.80695 -0.721445 0)
(-1.42551 -0.685047 0)
(-0.127122 -0.637198 0)
(1.07578 -0.586516 0)
(2.18704 -0.53889 0)
(3.20902 -0.494393 0)
(4.24338 -0.446739 0)
(5.14291 -0.462281 0)
(5.90389 -0.416184 0)
(6.6728 -0.372747 0)
(7.32369 -0.327969 0)
(7.8516 -0.23738 0)
(8.22061 -0.131336 0)
(8.36317 -0.0153191 0)
(8.24546 0.116209 0)
(7.85383 0.257914 0)
(7.1831 0.398637 0)
(6.23375 0.527325 0)
(5.02426 0.64558 0)
(3.57792 0.755862 0)
(2.08257 0.894256 0)
(0.592123 0.846101 0)
(-0.978922 0.780361 0)
(-2.46881 0.700301 0)
(-3.80977 0.600621 0)
(-4.95063 0.483807 0)
(-5.83487 0.359497 0)
(-6.46174 0.22643 0)
(-6.83249 0.0940042 0)
(-6.94733 -0.0283438 0)
(-6.82042 -0.137502 0)
(-6.48213 -0.230969 0)
(-5.966 -0.307707 0)
(-5.30552 -0.367832 0)
(-4.53293 -0.412336 0)
(-3.67801 -0.44256 0)
(-2.76784 -0.459839 0)
(-1.82667 -0.465975 0)
(-0.874988 -0.463017 0)
(0.070099 -0.45232 0)
(0.992437 -0.433978 0)
(1.8757 -0.40696 0)
(2.70037 -0.369331 0)
(3.43981 -0.319705 0)
(4.06882 -0.257676 0)
(4.55766 -0.182195 0)
(4.87875 -0.0918313 0)
(5.01486 0.0112072 0)
(4.94797 0.114872 0)
(4.65605 0.225836 0)
(4.18575 0.370103 0)
(3.5562 0.445826 0)
(2.72635 0.482371 0)
(1.75026 0.513612 0)
(0.694773 0.530594 0)
(-0.386413 0.522295 0)
(-1.43846 0.49083 0)
(-2.40819 0.436985 0)
(-3.24771 0.363188 0)
(-3.91855 0.273566 0)
(-4.39341 0.173096 0)
(-4.65479 0.0672947 0)
(-4.69586 -0.03738 0)
(-4.52771 -0.135602 0)
(-4.16447 -0.223259 0)
(-3.63095 -0.297637 0)
(-2.95405 -0.35773 0)
(-2.15652 -0.41175 0)
(-1.342 -0.484901 0)
(-0.508992 -0.470007 0)
(-6.62302 1.58619 0)
(-7.51191 1.27472 0)
(-8.20856 0.978191 0)
(-8.71657 0.710508 0)
(-9.06842 0.479711 0)
(-9.26837 0.250481 0)
(-9.3135 0.0413385 0)
(-9.2266 -0.199728 0)
(-8.94683 -0.540955 0)
(-8.41902 -0.940295 0)
(-7.60351 -1.39836 0)
(-6.47356 -1.88449 0)
(-5.03288 -2.34425 0)
(-3.32437 -2.71806 0)
(-1.4277 -2.95048 0)
(0.542701 -2.99706 0)
(2.45175 -2.84915 0)
(4.21623 -2.48517 0)
(5.69993 -2.04294 0)
(6.86793 -1.53672 0)
(7.64117 -0.987884 0)
(8.03279 -0.481766 0)
(8.09744 -0.076252 0)
(7.92503 0.221315 0)
(7.62107 0.3576 0)
(7.26209 0.395207 0)
(6.93087 0.353803 0)
(6.6549 0.33107 0)
(6.40382 0.349688 0)
(6.12481 0.459334 0)
(5.72781 0.683974 0)
(5.21853 1.03828 0)
(4.50789 1.42056 0)
(3.49438 1.8743 0)
(2.11122 2.34903 0)
(0.455472 2.63329 0)
(-1.29479 2.81738 0)
(-3.15337 2.86509 0)
(-4.99983 2.75244 0)
(-6.71364 2.47632 0)
(-8.18511 2.05274 0)
(-9.32862 1.51293 0)
(-10.0746 0.897085 0)
(-10.3868 0.249385 0)
(-10.2685 -0.384806 0)
(-9.74284 -0.967066 0)
(-8.87625 -1.4556 0)
(-7.72605 -1.8227 0)
(-6.37625 -2.06584 0)
(-4.91614 -2.19373 0)
(-3.41742 -2.21562 0)
(-1.93887 -2.15407 0)
(-0.535119 -2.03528 0)
(0.761358 -1.88531 0)
(1.94123 -1.72907 0)
(3.0112 -1.58405 0)
(3.98798 -1.45483 0)
(4.89966 -1.3343 0)
(5.72073 -1.28987 0)
(6.45448 -1.16581 0)
(7.11979 -1.02459 0)
(7.68683 -0.843405 0)
(8.09492 -0.598138 0)
(8.30003 -0.29931 0)
(8.30625 0.0598322 0)
(8.06697 0.456049 0)
(7.55227 0.868634 0)
(6.76023 1.28689 0)
(5.70855 1.68419 0)
(4.45279 2.01299 0)
(3.05913 2.27417 0)
(1.47382 2.4793 0)
(-0.217025 2.45986 0)
(-1.80366 2.33687 0)
(-3.28927 2.12405 0)
(-4.61274 1.83081 0)
(-5.71649 1.48018 0)
(-6.56037 1.09573 0)
(-7.12725 0.688476 0)
(-7.41447 0.28578 0)
(-7.43436 -0.0936292 0)
(-7.20999 -0.434549 0)
(-6.76845 -0.725693 0)
(-6.14978 -0.962408 0)
(-5.39353 -1.14741 0)
(-4.53303 -1.28555 0)
(-3.59971 -1.38063 0)
(-2.62197 -1.43591 0)
(-1.62552 -1.45626 0)
(-0.631128 -1.44834 0)
(0.34549 -1.41628 0)
(1.29016 -1.36116 0)
(2.18766 -1.28014 0)
(3.01961 -1.1676 0)
(3.76406 -1.01701 0)
(4.39409 -0.824051 0)
(4.87981 -0.588383 0)
(5.19362 -0.315537 0)
(5.31062 -0.0134064 0)
(5.22147 0.304121 0)
(4.93128 0.635307 0)
(4.412 0.971471 0)
(3.66624 1.23451 0)
(2.77843 1.42972 0)
(1.77543 1.56448 0)
(0.691462 1.62745 0)
(-0.415179 1.61204 0)
(-1.48495 1.51668 0)
(-2.46081 1.34608 0)
(-3.29289 1.11123 0)
(-3.94219 0.827217 0)
(-4.37731 0.512531 0)
(-4.58631 0.184674 0)
(-4.5721 -0.13963 0)
(-4.34071 -0.443116 0)
(-3.91423 -0.711372 0)
(-3.32331 -0.934757 0)
(-2.60622 -1.10923 0)
(-1.81323 -1.23883 0)
(-0.936764 -1.34143 0)
(-5.80197 2.5916 0)
(-6.8115 2.1108 0)
(-7.65508 1.63842 0)
(-8.2834 1.18333 0)
(-8.70449 0.760932 0)
(-8.93155 0.378592 0)
(-8.98096 -0.00567314 0)
(-8.87817 -0.464496 0)
(-8.55779 -1.02853 0)
(-7.94708 -1.68161 0)
(-7.07378 -2.43442 0)
(-5.90555 -3.22579 0)
(-4.44414 -3.96501 0)
(-2.73447 -4.55588 0)
(-0.865609 -4.89805 0)
(1.04892 -4.91735 0)
(2.88458 -4.62225 0)
(4.32561 -4.1014 0)
(5.41047 -3.17989 0)
(6.22876 -2.29755 0)
(6.70396 -1.3722 0)
(6.83496 -0.534837 0)
(6.70442 0.12655 0)
(6.427 0.537424 0)
(6.0972 0.726513 0)
(5.80221 0.735691 0)
(5.63815 0.642957 0)
(5.6107 0.517585 0)
(5.61719 0.5096 0)
(5.62165 0.673995 0)
(5.55976 1.04235 0)
(5.23013 1.62211 0)
(4.61391 2.27613 0)
(3.74062 2.99513 0)
(2.4974 3.64398 0)
(0.949988 4.24021 0)
(-0.790748 4.61189 0)
(-2.64452 4.71603 0)
(-4.49723 4.53243 0)
(-6.22553 4.06533 0)
(-7.71276 3.34691 0)
(-8.86305 2.43331 0)
(-9.60519 1.39696 0)
(-9.90599 0.312509 0)
(-9.75989 -0.745238 0)
(-9.20525 -1.7031 0)
(-8.29725 -2.49998 0)
(-7.11183 -3.10107 0)
(-5.73427 -3.49369 0)
(-4.2529 -3.68868 0)
(-2.75168 -3.70961 0)
(-1.29795 -3.58835 0)
(0.056991 -3.36521 0)
(1.28107 -3.08913 0)
(2.36498 -2.80717 0)
(3.31991 -2.5508 0)
(4.16882 -2.33347 0)
(4.93645 -2.15381 0)
(5.63404 -2.0047 0)
(6.269 -1.82724 0)
(6.8403 -1.59939 0)
(7.32844 -1.28822 0)
(7.69106 -0.891414 0)
(7.88503 -0.393154 0)
(7.8547 0.198568 0)
(7.58089 0.852742 0)
(7.06003 1.56579 0)
(6.25902 2.26577 0)
(5.19152 2.9031 0)
(3.88227 3.43247 0)
(2.38829 3.81057 0)
(0.761826 3.99177 0)
(-0.913499 4.03954 0)
(-2.52839 3.88954 0)
(-4.01769 3.55086 0)
(-5.31751 3.05969 0)
(-6.37396 2.46015 0)
(-7.14993 1.79468 0)
(-7.63024 1.09922 0)
(-7.81311 0.411095 0)
(-7.70828 -0.235208 0)
(-7.34985 -0.8122 0)
(-6.78373 -1.30286 0)
(-6.04654 -1.69827 0)
(-5.18189 -2.00188 0)
(-4.22866 -2.22415 0)
(-3.21937 -2.37304 0)
(-2.18254 -2.45363 0)
(-1.14623 -2.47594 0)
(-0.130996 -2.45582 0)
(0.851975 -2.39951 0)
(1.79473 -2.30513 0)
(2.68836 -2.16644 0)
(3.52013 -1.97522 0)
(4.27115 -1.72208 0)
(4.91392 -1.39951 0)
(5.41377 -1.00014 0)
(5.74228 -0.535287 0)
(5.87527 -0.0267107 0)
(5.79457 0.499316 0)
(5.47608 1.025 0)
(4.95984 1.53308 0)
(4.20778 2.00599 0)
(3.27224 2.39195 0)
(2.19307 2.65932 0)
(1.0204 2.78635 0)
(-0.183893 2.76835 0)
(-1.35799 2.60587 0)
(-2.44045 2.30903 0)
(-3.37455 1.89833 0)
(-4.11541 1.40153 0)
(-4.63369 0.85121 0)
(-4.90717 0.281732 0)
(-4.94293 -0.277722 0)
(-4.75146 -0.799937 0)
(-4.35096 -1.2585 0)
(-3.77409 -1.6357 0)
(-3.06 -1.91912 0)
(-2.24915 -2.10426 0)
(-1.37129 -2.18871 0)
(-4.83486 3.79031 0)
(-6.13505 3.16159 0)
(-7.25911 2.42302 0)
(-8.09731 1.66778 0)
(-8.61698 0.966803 0)
(-8.85634 0.369547 0)
(-8.85929 -0.129092 0)
(-8.63268 -0.769223 0)
(-8.17671 -1.57619 0)
(-7.47513 -2.47048 0)
(-6.56167 -3.46868 0)
(-5.39005 -4.59822 0)
(-3.97865 -5.59958 0)
(-2.34841 -6.35528 0)
(-0.575872 -6.78035 0)
(1.20936 -6.71708 0)
(2.80439 -6.19888 0)
(4.29269 -5.37032 0)
(5.24158 -4.25432 0)
(5.74102 -2.94156 0)
(6.00395 -1.65115 0)
(5.96473 -0.474953 0)
(5.7166 0.348565 0)
(5.34927 0.815259 0)
(5.0106 0.992856 0)
(4.83071 0.900532 0)
(4.77334 0.686223 0)
(4.82165 0.479083 0)
(5.03293 0.433352 0)
(5.27672 0.649028 0)
(5.42563 1.16062 0)
(5.37246 1.93683 0)
(5.00991 2.97892 0)
(4.27488 4.09148 0)
(3.13336 5.1251 0)
(1.63386 5.98115 0)
(-0.129775 6.53463 0)
(-2.04784 6.70571 0)
(-3.99268 6.4547 0)
(-5.82861 5.78627 0)
(-7.42742 4.75014 0)
(-8.68697 3.42988 0)
(-9.52811 1.92615 0)
(-9.90353 0.349419 0)
(-9.77359 -1.18255 0)
(-9.20813 -2.55688 0)
(-8.25033 -3.68921 0)
(-6.9851 -4.53035 0)
(-5.50925 -5.06468 0)
(-3.92002 -5.30512 0)
(-2.30977 -5.28603 0)
(-0.762401 -5.05795 0)
(0.656195 -4.68405 0)
(1.90691 -4.24225 0)
(2.97766 -3.80796 0)
(3.88435 -3.42745 0)
(4.65833 -3.11296 0)
(5.33542 -2.85596 0)
(5.94693 -2.63518 0)
(6.51215 -2.40125 0)
(7.03036 -2.10429 0)
(7.47958 -1.69833 0)
(7.81661 -1.15459 0)
(7.98174 -0.456866 0)
(7.91374 0.369533 0)
(7.60929 1.28921 0)
(7.06904 2.29138 0)
(6.18161 3.28065 0)
(4.98713 4.1739 0)
(3.53882 4.92448 0)
(1.89127 5.47221 0)
(0.11373 5.76496 0)
(-1.70509 5.79159 0)
(-3.46323 5.53748 0)
(-5.06882 5.01978 0)
(-6.44238 4.2841 0)
(-7.52403 3.39291 0)
(-8.27575 2.40875 0)
(-8.67909 1.38171 0)
(-8.71235 0.369371 0)
(-8.43701 -0.563277 0)
(-7.87754 -1.38115 0)
(-7.08873 -2.06451 0)
(-6.13356 -2.60664 0)
(-5.07109 -3.01523 0)
(-3.94904 -3.30997 0)
(-2.80089 -3.50577 0)
(-1.65635 -3.59791 0)
(-0.547165 -3.58729 0)
(0.511986 -3.51262 0)
(1.52192 -3.3947 0)
(2.48215 -3.24166 0)
(3.38962 -3.04997 0)
(4.23738 -2.79787 0)
(5.01033 -2.45881 0)
(5.68145 -2.01169 0)
(6.20931 -1.45521 0)
(6.55374 -0.811785 0)
(6.69231 -0.097664 0)
(6.59885 0.667585 0)
(6.25567 1.45036 0)
(5.65795 2.20604 0)
(4.80373 2.89634 0)
(3.73467 3.46065 0)
(2.49243 3.86729 0)
(1.14238 4.07388 0)
(-0.239952 4.06729 0)
(-1.5856 3.84863 0)
(-2.82326 3.43037 0)
(-3.88679 2.84142 0)
(-4.72473 2.12464 0)
(-5.30739 1.32989 0)
(-5.6216 0.505084 0)
(-5.6542 -0.305634 0)
(-5.44237 -1.06316 0)
(-5.00304 -1.72939 0)
(-4.37534 -2.2782 0)
(-3.60328 -2.69465 0)
(-2.73675 -2.97037 0)
(-1.82308 -3.10932 0)
(-1.13395 5.55623 0)
(-3.52459 4.96843 0)
(-5.98862 4.2039 0)
(-8.05416 3.42816 0)
(-9.35009 2.69944 0)
(-9.8888 1.82947 0)
(-9.93895 0.955024 0)
(-9.65849 0.154292 0)
(-9.00018 -0.765072 0)
(-7.91377 -1.88133 0)
(-6.52762 -2.9947 0)
(-5.18565 -4.53189 0)
(-3.79731 -5.91902 0)
(-2.31947 -7.22789 0)
(-0.852033 -8.30815 0)
(0.522769 -8.90785 0)
(1.84831 -8.80468 0)
(3.08509 -7.89638 0)
(4.0539 -6.45333 0)
(4.85669 -4.96138 0)
(5.20919 -3.34132 0)
(5.00355 -1.73018 0)
(4.67327 -0.275775 0)
(4.27889 0.745635 0)
(4.01527 1.29237 0)
(3.90662 1.47215 0)
(3.85764 1.2514 0)
(3.98874 0.716495 0)
(4.33744 0.272205 0)
(4.81662 0.0817319 0)
(5.32123 0.246285 0)
(5.72343 0.836367 0)
(5.87177 1.86315 0)
(5.65222 3.27707 0)
(4.90727 4.87369 0)
(3.64479 6.38687 0)
(1.94309 7.64215 0)
(-0.0809749 8.48345 0)
(-2.27944 8.81417 0)
(-4.48617 8.57591 0)
(-6.52608 7.77003 0)
(-8.24945 6.46005 0)
(-9.54988 4.75745 0)
(-10.3655 2.78569 0)
(-10.6532 0.6836 0)
(-10.4336 -1.37231 0)
(-9.75219 -3.23062 0)
(-8.66882 -4.78361 0)
(-7.27171 -5.95567 0)
(-5.65591 -6.71295 0)
(-3.91664 -7.06633 0)
(-2.14618 -7.06368 0)
(-0.430351 -6.76756 0)
(1.14599 -6.23907 0)
(2.51875 -5.57702 0)
(3.67591 -4.89744 0)
(4.64374 -4.29576 0)
(5.46051 -3.82388 0)
(6.16474 -3.48333 0)
(6.80199 -3.2255 0)
(7.40946 -2.97368 0)
(7.99294 -2.64322 0)
(8.52797 -2.16395 0)
(8.96609 -1.48543 0)
(9.22624 -0.579731 0)
(9.21643 0.513119 0)
(8.94035 1.60711 0)
(8.24439 2.96387 0)
(7.19009 4.31484 0)
(5.70558 5.53803 0)
(3.87253 6.58221 0)
(1.75812 7.33938 0)
(-0.538386 7.75305 0)
(-2.89322 7.78635 0)
(-5.16009 7.42546 0)
(-7.19142 6.69758 0)
(-8.86039 5.6674 0)
(-10.0819 4.42448 0)
(-10.8024 3.05414 0)
(-10.9868 1.62387 0)
(-10.7268 0.232901 0)
(-10.0459 -1.04359 0)
(-9.01787 -2.16094 0)
(-7.73173 -3.08101 0)
(-6.27792 -3.77623 0)
(-4.74164 -4.25798 0)
(-3.19008 -4.55978 0)
(-1.66447 -4.70566 0)
(-0.20763 -4.72211 0)
(1.11771 -4.66463 0)
(2.29316 -4.57549 0)
(3.35231 -4.44774 0)
(4.32534 -4.26953 0)
(5.23448 -4.02052 0)
(6.09121 -3.69288 0)
(6.89214 -3.26758 0)
(7.60347 -2.69792 0)
(8.17668 -1.9619 0)
(8.53574 -1.08635 0)
(8.63843 -0.121996 0)
(8.43908 0.907334 0)
(7.91835 1.96504 0)
(7.06807 3.00117 0)
(5.89554 3.95856 0)
(4.429 4.77669 0)
(2.66057 5.34641 0)
(0.73343 5.624 0)
(-1.21461 5.62121 0)
(-3.08789 5.32251 0)
(-4.78572 4.74206 0)
(-6.21163 3.922 0)
(-7.29367 2.92475 0)
(-7.99613 1.8234 0)
(-8.30038 0.685129 0)
(-8.22656 -0.42822 0)
(-7.82761 -1.45901 0)
(-7.13413 -2.35487 0)
(-6.20409 -3.08345 0)
(-5.09989 -3.6285 0)
(-3.88145 -3.98417 0)
(-2.60402 -4.15688 0)
(5.3819 9.41392 0)
(1.7628 9.6273 0)
(-3.31035 8.44561 0)
(-8.32346 6.08195 0)
(-12.5903 3.10143 0)
(-15.5884 0.850608 0)
(-17.0999 -0.804947 0)
(-17.0067 -1.82648 0)
(-15.6526 -3.08645 0)
(-13.2444 -4.56825 0)
(-10.0996 -5.52222 0)
(-6.15797 -5.90225 0)
(-2.50184 -7.16238 0)
(0.364215 -8.04838 0)
(2.84177 -8.74121 0)
(4.61554 -9.33203 0)
(5.69375 -9.24321 0)
(6.0058 -8.58129 0)
(5.66849 -7.26248 0)
(5.23146 -5.33941 0)
(4.74921 -3.31518 0)
(4.03365 -1.30057 0)
(3.47785 0.322731 0)
(3.1783 1.10973 0)
(3.40181 1.21744 0)
(4.02195 1.04342 0)
(4.93748 0.633326 0)
(6.05541 -0.0264437 0)
(7.25832 -0.586537 0)
(8.33762 -0.77325 0)
(9.20238 -0.43248 0)
(9.82186 0.50152 0)
(9.99786 2.00319 0)
(9.42825 4.0047 0)
(7.9249 6.16619 0)
(5.49578 8.20574 0)
(2.33665 9.88204 0)
(-1.32103 10.997 0)
(-5.19521 11.3982 0)
(-8.9805 11.0048 0)
(-12.3391 9.84295 0)
(-14.9676 8.03401 0)
(-16.6815 5.76081 0)
(-17.3395 3.2074 0)
(-17.1015 0.559957 0)
(-16.0566 -2.0216 0)
(-14.3236 -4.33491 0)
(-12.0734 -6.22547 0)
(-9.49063 -7.62332 0)
(-6.74698 -8.51264 0)
(-3.98669 -8.91063 0)
(-1.32162 -8.85167 0)
(1.16292 -8.38695 0)
(3.36105 -7.61094 0)
(5.18477 -6.75208 0)
(6.63535 -5.97098 0)
(7.78161 -5.31098 0)
(8.71503 -4.75696 0)
(9.51662 -4.30622 0)
(10.2751 -3.99394 0)
(11.0304 -3.71472 0)
(11.7812 -3.34844 0)
(12.4964 -2.7962 0)
(13.0963 -1.97251 0)
(13.4787 -0.796284 0)
(13.5729 0.696615 0)
(13.1423 2.07187 0)
(12.2664 3.93622 0)
(10.7457 5.86519 0)
(8.49583 7.54029 0)
(5.61442 8.94209 0)
(2.19972 9.98215 0)
(-1.56285 10.5635 0)
(-5.47185 10.5861 0)
(-9.27602 10.0148 0)
(-12.7014 8.89199 0)
(-15.501 7.31928 0)
(-17.4907 5.43672 0)
(-18.5203 3.39887 0)
(-18.5572 1.36189 0)
(-17.7714 -0.559694 0)
(-16.2284 -2.28602 0)
(-14.0899 -3.7312 0)
(-11.5458 -4.85062 0)
(-8.78224 -5.6398 0)
(-5.96262 -6.12671 0)
(-3.20178 -6.37919 0)
(-0.520725 -6.50337 0)
(2.10591 -6.4905 0)
(4.45556 -6.16645 0)
(6.37333 -5.80634 0)
(7.92916 -5.46472 0)
(9.19003 -5.14983 0)
(10.23 -4.83987 0)
(11.1138 -4.484 0)
(11.8685 -4.00806 0)
(12.5078 -3.34707 0)
(13.0015 -2.45035 0)
(13.2497 -1.32264 0)
(13.1792 -0.0351056 0)
(12.7188 1.35574 0)
(11.8245 2.79451 0)
(10.4705 4.21735 0)
(8.65615 5.55048 0)
(6.38655 6.72969 0)
(3.66948 7.65751 0)
(0.558268 8.02353 0)
(-2.62514 7.97603 0)
(-5.70029 7.51447 0)
(-8.49875 6.6424 0)
(-10.8524 5.42457 0)
(-12.6249 3.96226 0)
(-13.7375 2.37148 0)
(-14.1224 0.772726 0)
(-13.8516 -0.742836 0)
(-13.0433 -2.13396 0)
(-11.7691 -3.34509 0)
(-10.137 -4.32374 0)
(-8.2597 -5.04529 0)
(-6.24285 -5.51403 0)
(-4.1722 -5.74964 0)
(7.12168 11.8462 0)
(-1.2212 13.4693 0)
(-9.60217 14.1579 0)
(-16.688 12.8673 0)
(-22.1082 10.2278 0)
(-26.0506 6.32389 0)
(-27.872 2.82541 0)
(-27.5566 -0.140304 0)
(-24.8563 -3.6072 0)
(-20.6576 -7.43595 0)
(-15.0198 -10.1913 0)
(-8.59976 -11.5429 0)
(-2.42486 -12.7637 0)
(4.00247 -12.9492 0)
(8.60305 -13.1253 0)
(11.3217 -12.5588 0)
(12.0674 -10.8527 0)
(11.7097 -8.28301 0)
(10.4646 -5.62862 0)
(8.30536 -3.69027 0)
(5.52233 -1.96438 0)
(3.14953 -0.500952 0)
(1.7229 0.389096 0)
(1.72554 0.537861 0)
(2.53104 0.14419 0)
(4.44503 0.0885369 0)
(8.05349 -0.484215 0)
(12.1841 -1.6176 0)
(16.1351 -1.75332 0)
(19.3489 -1.62014 0)
(21.5169 -1.0746 0)
(22.3882 0.0379876 0)
(21.9023 1.95216 0)
(20.2007 5.03505 0)
(17.0184 8.73554 0)
(12.4504 11.9497 0)
(6.13092 14.4993 0)
(-1.26067 16.073 0)
(-9.10428 16.6322 0)
(-16.8449 15.9466 0)
(-23.8647 14.0129 0)
(-29.5742 11.0331 0)
(-33.5188 7.33776 0)
(-35.336 3.34515 0)
(-34.8612 -0.522468 0)
(-32.5888 -4.05314 0)
(-28.7723 -7.14371 0)
(-23.8595 -9.60811 0)