/*--------------------------------*- C++ -*----------------------------------*\
| =========                 |                                                 |
| \\      /  F ield         | OpenFOAM: The Open Source CFD Toolbox           |
|  \\    /   O peration     | Version:  2206                                  |
|   \\  /    A nd           | Website:  www.openfoam.com                      |
|    \\/     M anipulation  |                                                 |
\*---------------------------------------------------------------------------*/
FoamFile
{
    version     2.0;
    format      ascii;
    arch        "LSB;label=32;scalar=64";
    class       volVectorField;
    location    "18.6";
    object      ddt0(U);
}
// * * * * * * * * * * * * * * * * * * * * * * * * * * * * * * * * * * * * * //

dimensions      [0 1 -2 0 0 0 0];

internalField   nonuniform List<vector> 
3062
(
(-4.37511 -29.3689 0)
(28.7173 -34.0343 0)
(51.7784 -38.883 0)
(75.4503 -35.9614 0)
(106.159 -19.6645 0)
(133.768 3.44003 0)
(154.963 24.085 0)
(175.96 39.049 0)
(194.536 55.6108 0)
(206.413 70.3951 0)
(199.965 89.646 0)
(163.273 118.872 0)
(100.562 155.862 0)
(27.4865 190.301 0)
(-28.3028 213.818 0)
(-65.2168 203.026 0)
(-92.398 175.733 0)
(-116.172 138.459 0)
(-143.664 90.0069 0)
(-179.778 26.425 0)
(-219.564 -55.5128 0)
(-259.677 -151.569 0)
(-293.126 -251.843 0)
(-309.671 -333.007 0)
(-286.068 -360.049 0)
(-228.821 -334.688 0)
(-162.315 -284.753 0)
(-98.9248 -225.744 0)
(-44.8437 -168.435 0)
(-2.84552 -118.415 0)
(28.8065 -78.7107 0)
(56.4744 -44.7912 0)
(73.4689 -14.7817 0)
(83.4754 3.67292 0)
(87.6381 14.2271 0)
(88.4304 19.8956 0)
(87.807 22.4089 0)
(86.81 23.8892 0)
(85.2302 25.9625 0)
(84.3406 27.9563 0)
(86.6787 26.7991 0)
(95.5687 19.5454 0)
(109.837 8.5187 0)
(121.297 4.14678 0)
(119.019 16.7661 0)
(104.399 50.0603 0)
(75.2888 98.2406 0)
(37.0376 147.871 0)
(6.38751 188.086 0)
(-28.1916 213.643 0)
(-48.0789 217.184 0)
(-59.219 202.993 0)
(-64.7524 180.338 0)
(-64.8598 153.231 0)
(-60.6772 125.146 0)
(-53.4129 99.0285 0)
(-44.162 77.0749 0)
(-34.038 60.3955 0)
(-24.2318 48.5336 0)
(-15.8996 39.5886 0)
(-9.40715 31.5787 0)
(-4.60026 23.73 0)
(-3.0017 14.5935 0)
(-4.58157 2.26762 0)
(-10.3216 -36.6191 0)
(-18.199 -73.1011 0)
(-27.3278 -113.897 0)
(-36.5643 -154.899 0)
(-44.598 -190.649 0)
(-50.16 -215.528 0)
(-51.2495 -223.701 0)
(-48.0702 -216.464 0)
(-42.2193 -199.324 0)
(-34.2363 -175.037 0)
(-24.8421 -146.678 0)
(-14.9069 -117.09 0)
(-5.16059 -88.5277 0)
(3.77655 -62.5451 0)
(12.4127 -39.9816 0)
(22.4295 -20.2915 0)
(30.7247 -4.13788 0)
(38.4579 5.3878 0)
(44.9581 9.89922 0)
(50.1995 11.2179 0)
(54.0528 11.7282 0)
(56.1226 14.0143 0)
(56.0301 20.1799 0)
(53.6473 31.3515 0)
(49.1977 47.3238 0)
(43.0895 66.6455 0)
(35.7149 87.1396 0)
(27.4803 106.519 0)
(18.7578 122.706 0)
(9.88968 134.207 0)
(1.38103 139.932 0)
(-6.21508 139.13 0)
(-12.7079 134.167 0)
(-17.9524 125.717 0)
(-21.8018 114.642 0)
(-24.241 101.761 0)
(-25.3683 87.8525 0)
(-25.3847 73.6429 0)
(-24.504 59.6786 0)
(-22.8722 46.3478 0)
(-20.5201 33.9621 0)
(10.3388 -44.1167 0)
(30.6632 -64.7253 0)
(47.2676 -70.4854 0)
(69.3432 -65.6257 0)
(96.2484 -50.0548 0)
(124.302 -27.2921 0)
(150.834 -5.8489 0)
(172.851 16.854 0)
(178.841 47.3491 0)
(161.178 87.4133 0)
(121.238 134.787 0)
(71.8693 181.824 0)
(23.8495 218.101 0)
(-13.1932 239.262 0)
(-35.058 236.5 0)
(-35.1053 213.641 0)
(-29.9134 185.764 0)
(-27.9584 153.458 0)
(-34.1004 114.15 0)
(-55.802 64.5522 0)
(-94.7975 -9.49149 0)
(-148.209 -106.13 0)
(-206.675 -215.375 0)
(-253.817 -317.378 0)
(-276.827 -383.038 0)
(-255.609 -384.435 0)
(-208.707 -344.692 0)
(-152.927 -285.348 0)
(-98.1641 -220.905 0)
(-49.9153 -160.677 0)
(-11.253 -108.75 0)
(16.8402 -67.7738 0)
(43.7331 -36.379 0)
(61.0682 -7.92995 0)
(72.473 9.26586 0)
(79.1356 17.8485 0)
(82.1214 22.3672 0)
(82.2909 25.0239 0)
(81.9183 26.7851 0)
(83.8185 25.7542 0)
(91.1688 18.6232 0)
(104.53 6.10065 0)
(117.719 -2.91132 0)
(120.402 3.17906 0)
(111.421 30.2415 0)
(88.2072 76.2997 0)
(52.0439 131.371 0)
(21.1584 182.485 0)
(-15.8934 220.747 0)
(-42.5381 238.002 0)
(-57.4779 230.313 0)
(-65.2092 209.795 0)
(-66.9476 181.439 0)
(-63.6588 149.675 0)
(-56.6734 118.139 0)
(-47.2685 89.6939 0)
(-36.4661 66.3726 0)
(-25.0998 49.361 0)
(-14.058 38.5995 0)
(-4.20112 32.0313 0)
(3.41367 27.0724 0)
(8.16124 21.4017 0)
(11.4385 12.96 0)
(11.9316 2.45278 0)
(8.59453 -30.4325 0)
(-0.00216712 -64.1459 0)
(-10.0951 -104.173 0)
(-20.3464 -145.604 0)
(-30.1074 -182.769 0)
(-38.3001 -210.357 0)
(-43.1116 -222.961 0)
(-43.6729 -218.84 0)
(-41.3708 -204.442 0)
(-36.6095 -182.242 0)
(-29.8973 -155.196 0)
(-21.9536 -126.151 0)
(-13.5204 -97.5195 0)
(-5.22077 -71.1584 0)
(2.56551 -48.2415 0)
(11.023 -29.3107 0)
(20.4812 -13.1444 0)
(28.5354 -1.95878 0)
(35.8081 3.74548 0)
(41.5522 6.45158 0)
(45.6345 8.67625 0)
(47.7875 12.9931 0)
(47.7622 21.3796 0)
(45.5812 34.6452 0)
(41.5311 52.3651 0)
(35.9488 73.0619 0)
(29.1784 94.5928 0)
(21.6442 114.637 0)
(13.6325 131.127 0)
(5.51177 142.571 0)
(-2.15917 147.555 0)
(-8.83333 145.78 0)
(-14.3646 139.595 0)
(-18.5675 129.757 0)
(-21.3044 117.245 0)
(-22.5572 102.979 0)
(-22.4723 87.8742 0)
(-21.3682 72.7282 0)
(-19.5566 58.001 0)
(-17.2209 44.0095 0)
(-14.3351 31.0988 0)
(9.26347 -63.6012 0)
(21.1489 -77.0196 0)
(30.7775 -83.7695 0)
(45.1655 -80.8609 0)
(61.2617 -68.5683 0)
(78.6153 -46.3269 0)
(90.1341 -16.5273 0)
(91.8269 21.9644 0)
(82.4964 66.4676 0)
(66.4479 123.631 0)
(31.3256 180.599 0)
(3.93018 222.858 0)
(-25.9868 253.717 0)
(-39.1806 252.346 0)
(-30.3099 231.24 0)
(-14.5891 207.402 0)
(5.41283 180.277 0)
(25.2292 153.034 0)
(41.1499 123.776 0)
(49.2543 85.7881 0)
(34.7206 36.3435 0)
(-4.72991 -47.4482 0)
(-78.6789 -151.84 0)
(-151.841 -265.543 0)
(-209.506 -358.337 0)
(-235.608 -401.947 0)
(-220.374 -384.631 0)
(-183.61 -334.901 0)
(-138.38 -271.148 0)
(-92.5674 -206.017 0)
(-51.1579 -147.093 0)
(-16.5523 -97.4596 0)
(9.14079 -56.8985 0)
(31.343 -26.5173 0)
(49.9366 -4.437 0)
(63.4879 10.9069 0)
(71.3561 19.0272 0)
(74.2538 23.8425 0)
(76.8915 24.5629 0)
(83.5139 18.768 0)
(95.6935 6.16731 0)
(109.664 -6.50523 0)
(117.004 -7.78069 0)
(113.055 10.4138 0)
(96.9973 50.6863 0)
(68.2658 106.083 0)
(33.0996 165.912 0)
(-3.2891 217.671 0)
(-35.0626 250.018 0)
(-55.7617 255.702 0)
(-66.0192 240.013 0)
(-69.4894 212.68 0)
(-67.0375 178.785 0)
(-60.126 142.954 0)
(-50.3973 108.753 0)
(-39.1483 78.8506 0)
(-27.3246 54.8929 0)
(-15.7414 37.679 0)
(-4.89064 27.1879 0)
(6.46273 22.4054 0)
(16.3694 19.1137 0)
(22.9028 16.7117 0)
(26.421 11.8904 0)
(27.5051 0.774596 0)
(24.4799 -22.0579 0)
(16.6335 -54.788 0)
(6.47348 -93.863 0)
(-4.59898 -135.054 0)
(-15.8253 -172.983 0)
(-26.1453 -202.353 0)
(-34.1216 -218.686 0)
(-38.1218 -217.754 0)
(-39.061 -206.198 0)
(-37.3958 -186.426 0)
(-33.46 -161.232 0)
(-27.7718 -133.365 0)
(-20.9697 -105.29 0)
(-13.5854 -79.075 0)
(-6.13623 -56.1019 0)
(1.16899 -37.1515 0)
(9.82116 -22.3638 0)
(18.493 -10.1907 0)
(26.0454 -2.86359 0)
(32.14 1.39594 0)
(36.3235 5.49898 0)
(38.5383 11.89 0)
(38.654 22.4204 0)
(36.7305 37.6038 0)
(33.0533 56.9228 0)
(27.9167 78.9018 0)
(21.8044 101.41 0)
(14.9785 122.019 0)
(7.76809 138.763 0)
(0.525547 150.072 0)
(-6.10271 154.213 0)
(-11.632 151.403 0)
(-16.0019 143.947 0)
(-19.0097 132.672 0)
(-20.5097 118.628 0)
(-20.5165 102.923 0)
(-19.1999 86.6587 0)
(-16.8623 70.7049 0)
(-13.8718 55.4375 0)
(-10.6176 41.0741 0)
(-7.45806 27.8931 0)
(4.54524 -76.6853 0)
(10.367 -83.6458 0)
(13.0684 -85.7424 0)
(16.3443 -85.2779 0)
(18.527 -73.6583 0)
(19.9348 -49.3294 0)
(22.3279 -17.5597 0)
(21.1189 27.3843 0)
(16.8745 74.0759 0)
(4.03509 143.806 0)
(-23.3354 201.738 0)
(-49.805 249.967 0)
(-58.6349 257.646 0)
(-45.8302 240.774 0)
(-29.6252 212.812 0)
(-3.95504 180.237 0)
(26.7508 149.994 0)
(59.0898 124.426 0)
(87.2651 103.056 0)
(106.495 79.5636 0)
(108.781 49.7474 0)
(88.0313 15.7911 0)
(52.7036 -79.7635 0)
(-27.8376 -190.266 0)
(-111.151 -298.537 0)
(-171.79 -374.754 0)
(-196.35 -394.997 0)
(-186.459 -364.959 0)
(-158.822 -311.089 0)
(-122.566 -247.677 0)
(-84.7314 -185.256 0)
(-49.9791 -129.435 0)
(-20.3065 -82.854 0)
(4.49707 -48.2177 0)
(22.6879 -22.7345 0)
(41.3065 -5.60057 0)
(54.7148 13.2566 0)
(63.125 19.3972 0)
(71.1727 17.5012 0)
(82.9542 7.09435 0)
(97.2129 -7.16041 0)
(108.277 -15.1011 0)
(108.864 -6.69584 0)
(100.217 24.07 0)
(77.9503 74.9473 0)
(45.4134 138.964 0)
(8.85829 202.542 0)
(-26.1815 250.711 0)
(-53.0787 274.325 0)
(-67.2744 267.88 0)
(-72.753 244.818 0)
(-71.3063 210.887 0)
(-64.3421 172.022 0)
(-53.8293 132.991 0)
(-41.545 97.1213 0)
(-28.825 66.6736 0)
(-16.5165 42.9978 0)
(-5.39766 26.5073 0)
(6.09341 17.0118 0)
(18.0689 10.9149 0)
(28.0423 10.2262 0)
(35.3826 11.2582 0)
(39.7015 9.75197 0)
(41.1866 1.61508 0)
(38.8588 -17.3169 0)
(31.9822 -46.3883 0)
(22.1174 -83.3344 0)
(10.3307 -123.49 0)
(-2.15185 -161.471 0)
(-14.2494 -192.078 0)
(-24.7582 -210.913 0)
(-31.9133 -213.842 0)
(-35.7751 -204.914 0)
(-37.0253 -187.744 0)
(-35.7864 -164.764 0)
(-32.3629 -138.579 0)
(-27.2916 -111.664 0)
(-21.0622 -86.1148 0)
(-14.1636 -63.5065 0)
(-7.06968 -44.7382 0)
(0.13554 -29.9812 0)
(8.39779 -18.9341 0)
(15.9534 -9.84816 0)
(21.9954 -3.58863 0)
(26.202 2.25581 0)
(28.5541 10.5862 0)
(28.9118 23.3296 0)
(27.1663 40.2983 0)
(23.6832 61.0707 0)
(19.0626 84.278 0)
(13.5514 107.515 0)
(7.50667 128.59 0)
(1.21567 145.513 0)
(-4.9653 156.522 0)
(-10.3302 159.647 0)
(-14.484 155.777 0)
(-17.459 147.012 0)
(-19.078 134.296 0)
(-19.2494 118.781 0)
(-18.0296 101.682 0)
(-15.6001 84.2321 0)
(-12.1978 67.4629 0)
(-8.15919 51.8522 0)
(-4.04944 37.6334 0)
(-0.523103 24.7839 0)
(-0.270129 -80.5722 0)
(-1.07236 -85.763 0)
(-2.11154 -88.4806 0)
(-3.47742 -86.9525 0)
(-4.17718 -76.2919 0)
(-4.65422 -53.3566 0)
(-2.84196 -16.3069 0)
(-4.73658 26.3961 0)
(-17.9732 92.115 0)
(-47.5994 164.718 0)
(-65.8693 223.074 0)
(-76.2846 252.492 0)
(-67.7993 250.568 0)
(-54.6636 224.093 0)
(-33.8094 187.203 0)
(-4.83793 146.116 0)
(29.8572 110.197 0)
(69.9514 83.6331 0)
(110.803 69.5795 0)
(147.312 65.4002 0)
(171.495 50.7912 0)
(169.684 23.0541 0)
(134.928 -30.7013 0)
(89.3027 -111.069 0)
(1.43025 -217.156 0)
(-84.8765 -314.119 0)
(-142.732 -370.859 0)
(-162.856 -370.509 0)
(-157.129 -333.605 0)
(-136.753 -279.435 0)
(-108.04 -219.283 0)
(-77.0357 -161.841 0)
(-47.3019 -111.659 0)
(-20.9323 -70.3356 0)
(1.2925 -40.177 0)
(17.9683 -20.9414 0)
(33.1887 -4.01869 0)
(49.4276 7.87479 0)
(64.3703 4.69041 0)
(79.8348 -7.04996 0)
(93.3836 -18.4622 0)
(99.1689 -18.7408 0)
(96.1689 0.634761 0)
(81.2451 42.476 0)
(53.3143 103.718 0)
(18.5155 174.635 0)
(-17.9075 237.576 0)
(-49.4268 279.672 0)
(-69.4608 291.302 0)
(-77.214 275.529 0)
(-76.973 244.399 0)
(-70.0744 204.253 0)
(-58.6248 161.338 0)
(-44.8543 120.218 0)
(-30.5332 83.8481 0)
(-16.9861 53.8398 0)
(-5.32015 30.8951 0)
(6.63151 14.9227 0)
(18.9462 4.41183 0)
(29.8716 0.0931245 0)
(39.1325 1.67903 0)
(46.4811 5.24053 0)
(51.4199 6.64372 0)
(53.3922 1.73009 0)
(51.7477 -13.0167 0)
(45.9089 -38.2434 0)
(36.2451 -72.3361 0)
(24.1254 -111.047 0)
(10.6413 -148.632 0)
(-2.92241 -179.905 0)
(-15.4131 -200.611 0)
(-25.1926 -207.101 0)
(-31.6866 -200.772 0)
(-35.5471 -186.312 0)
(-36.8073 -165.833 0)
(-35.6121 -141.781 0)
(-32.3669 -116.528 0)
(-27.5223 -92.1577 0)
(-21.5354 -70.2608 0)
(-14.8511 -51.841 0)
(-7.90477 -37.16 0)
(-0.951792 -25.7931 0)
(5.80319 -16.996 0)
(11.3545 -9.00552 0)
(15.0489 -0.70494 0)
(18.1352 9.24725 0)
(18.8561 23.893 0)
(16.7303 42.6566 0)
(13.4582 64.9468 0)
(9.30216 89.0482 0)
(4.46825 112.871 0)
(-0.703539 134.253 0)
(-5.94775 151.181 0)
(-10.8818 161.748 0)
(-14.7307 163.615 0)
(-17.278 158.646 0)
(-18.6412 148.591 0)
(-18.6811 134.485 0)
(-17.3827 117.599 0)
(-14.8699 99.2946 0)
(-11.3508 80.8357 0)
(-7.06617 63.2662 0)
(-2.33483 47.2541 0)
(2.30821 32.9848 0)
(7.1685 20.7166 0)
(9.20782 27.9262 0)
(16.0718 14.9154 0)
(0.305122 -0.20408 0)
(0.524315 -0.262862 0)
(0.83546 -0.291845 0)
(1.20466 -0.277102 0)
(1.57996 -0.205683 0)
(1.89576 -0.0702646 0)
(2.04762 0.118334 0)
(2.07538 0.360464 0)
(1.55773 0.5508 0)
(1.01596 0.567143 0)
(0.412002 0.424156 0)
(-0.248674 0.253268 0)
(-0.877578 0.122651 0)
(-1.43564 0.0496698 0)
(-1.9328 0.0560143 0)
(-2.38375 0.13421 0)
(-2.81678 0.300986 0)
(-3.29653 0.584088 0)
(-3.84797 1.01091 0)
(-5.03981 1.40941 0)
(-6.34548 1.58335 0)
(0.559615 -0.135835 0)
(0.530827 -0.268722 0)
(0.547133 -0.374741 0)
(0.59853 -0.433913 0)
(0.665238 -0.427182 0)
(0.735666 -0.337877 0)
(0.789674 -0.159872 0)
(0.7955 0.109641 0)
(0.805488 0.431015 0)
(0.690288 0.734109 0)
(0.384032 0.964138 0)
(-0.154865 1.10957 0)
(-0.920628 1.17365 0)
(-1.87752 1.1692 0)
(-2.98186 1.10945 0)
(-4.18102 1.01753 0)
(-5.42121 0.919649 0)
(-6.62786 0.847394 0)
(-7.73292 0.852613 0)
(-8.53757 0.923097 0)
(-8.66348 1.02881 0)
(0.830226 -0.0542648 0)
(0.70238 -0.218667 0)
(0.605094 -0.348124 0)
(0.537276 -0.418331 0)
(0.496283 -0.410006 0)
(0.480068 -0.310462 0)
(0.483708 -0.110075 0)
(0.497952 0.17486 0)
(0.519543 0.508385 0)
(0.511468 0.849816 0)
(0.460979 1.16844 0)
(0.314651 1.44911 0)
(0.0478549 1.68562 0)
(-0.344125 1.87544 0)
(-0.855999 2.01776 0)
(-1.47235 2.11357 0)
(-2.16585 2.16842 0)
(-2.89419 2.18563 0)
(-3.60068 2.15112 0)
(-4.21355 2.00289 0)
(-4.78101 1.66361 0)
(0.891835 0.106936 0)
(0.754115 -0.0832217 0)
(0.654465 -0.240055 0)
(0.590462 -0.337556 0)
(0.559142 -0.3555 0)
(0.561953 -0.28077 0)
(0.591024 -0.107566 0)
(0.632061 0.155491 0)
(0.679899 0.483932 0)
(0.724554 0.846322 0)
(0.743671 1.21093 0)
(0.711487 1.55693 0)
(0.611939 1.87168 0)
(0.437641 2.14607 0)
(0.185512 2.37057 0)
(-0.138803 2.53935 0)
(-0.541837 2.64583 0)
(-0.987596 2.67585 0)
(-1.47093 2.61461 0)
(-1.98301 2.43953 0)
(-2.53746 2.1149 0)
(0.776535 0.264248 0)
(0.643837 0.0308099 0)
(0.569375 -0.172097 0)
(0.545691 -0.306084 0)
(0.573286 -0.368565 0)
(0.648562 -0.347258 0)
(0.744642 -0.16248 0)
(0.866084 0.08245 0)
(0.974174 0.409092 0)
(1.05866 0.79079 0)
(1.10661 1.19743 0)
(1.10438 1.60027 0)
(1.04289 1.97662 0)
(0.921109 2.31326 0)
(0.741884 2.59677 0)
(0.497789 2.82292 0)
(0.205565 2.98745 0)
(-0.148069 3.06099 0)
(-0.558265 3.03701 0)
(-1.02278 2.92316 0)
(-1.58687 2.70041 0)
(0.739461 0.710281 0)
(0.543363 0.413453 0)
(0.427932 0.114045 0)
(0.400016 -0.153622 0)
(0.447127 -0.343909 0)
(0.572023 -0.462063 0)
(0.731416 -0.448852 0)
(0.913598 -0.309119 0)
(1.10569 -0.0582927 0)
(1.27145 0.295175 0)
(1.3904 0.717762 0)
(1.46122 1.16724 0)
(1.47861 1.6168 0)
(1.42422 2.05105 0)
(1.30778 2.44589 0)
(1.14392 2.78696 0)
(0.900279 3.06341 0)
(0.661969 3.27759 0)
(0.363309 3.42508 0)
(-0.102725 3.49146 0)
(-0.580297 3.47562 0)
(-1.16167 3.37388 0)
(0.426146 0.959059 0)
(0.205705 0.570826 0)
(0.10408 0.16995 0)
(0.129673 -0.198361 0)
(0.26758 -0.477333 0)
(0.503089 -0.655106 0)
(0.795208 -0.689425 0)
(1.10487 -0.550082 0)
(1.40699 -0.272869 0)
(1.64881 0.128767 0)
(1.81645 0.608732 0)
(1.90568 1.12536 0)
(1.90931 1.64786 0)
(1.83231 2.14965 0)
(1.68906 2.60294 0)
(1.49066 2.99598 0)
(1.224 3.32615 0)
(0.913315 3.57537 0)
(0.556696 3.76696 0)
(0.147531 3.91282 0)
(-0.334288 3.99417 0)
(-0.92636 4.0199 0)
(0.012671 1.24612 0)
(-0.246918 0.725904 0)
(-0.337759 0.182357 0)
(-0.248655 -0.324072 0)
(0.00563616 -0.724939 0)
(0.386881 -0.972578 0)
(0.863254 -1.06364 0)
(1.34063 -0.915787 0)
(1.78346 -0.583963 0)
(2.13289 -0.103648 0)
(2.3695 0.468559 0)
(2.48105 1.08375 0)
(2.46787 1.6992 0)
(2.35253 2.2773 0)
(2.14708 2.79738 0)
(1.87349 3.24671 0)
(1.55132 3.62234 0)
(1.19163 3.92708 0)
(0.793406 4.17754 0)
(0.353094 4.38271 0)
(-0.143132 4.54775 0)
(-0.724217 4.69074 0)
(-0.545646 1.61634 0)
(-0.864826 0.905515 0)
(-0.946717 0.151576 0)
(-0.778101 -0.559031 0)
(-0.375627 -1.14092 0)
(0.201879 -1.50246 0)
(0.915178 -1.64704 0)
(1.61706 -1.47722 0)
(2.2458 -1.06437 0)
(2.73133 -0.462654 0)
(3.04237 0.257522 0)
(3.17324 1.02387 0)
(3.13803 1.77514 0)
(2.96476 2.468 0)
(2.68273 3.07762 0)
(2.32444 3.59188 0)
(1.91684 4.01064 0)
(1.48543 4.34587 0)
(1.02958 4.62208 0)
(0.554166 4.85976 0)
(0.043743 5.08346 0)
(-0.528943 5.32102 0)
(-1.30673 2.07944 0)
(-1.72842 1.11776 0)
(-1.8132 0.0864914 0)
(-1.54696 -0.897105 0)
(-0.947589 -1.72153 0)
(-0.0843163 -2.25038 0)
(0.962483 -2.45766 0)
(1.94989 -2.1968 0)
(2.82183 -1.64238 0)
(3.48727 -0.868352 0)
(3.89051 0.0456486 0)
(4.03852 0.995546 0)
(3.95638 1.90605 0)
(3.69762 2.72476 0)
(3.31151 3.42673 0)
(2.83643 3.99958 0)
(2.3277 4.44711 0)
(1.80616 4.79562 0)
(1.2982 5.084 0)
(0.795681 5.34466 0)
(0.289004 5.6109 0)
(-0.250432 5.92202 0)
(-2.35507 2.70559 0)
(-2.91818 1.35438 0)
(-3.01607 -0.0792059 0)
(-2.63252 -1.47571 0)
(-1.77883 -2.67971 0)
(-0.518319 -3.43516 0)
(0.991878 -3.7039 0)
(2.46462 -3.43357 0)
(3.59682 -2.61622 0)
(4.43701 -1.51874 0)
(4.91965 -0.265894 0)
(5.05639 0.986943 0)
(4.89223 2.14169 0)
(4.52035 3.13731 0)
(3.98796 3.95807 0)
(3.37566 4.59142 0)
(2.74883 5.04824 0)
(2.13354 5.37405 0)
(1.58672 5.62376 0)
(1.07354 5.85746 0)
(0.597557 6.12342 0)
(0.133681 6.47211 0)
(-3.76611 3.6417 0)
(-4.51747 1.76176 0)
(-4.63303 -0.179167 0)
(-4.13753 -2.10204 0)
(-2.89633 -3.90703 0)
(-1.04702 -4.95778 0)
(1.09116 -5.0798 0)
(3.19 -4.62945 0)
(4.82351 -3.62243 0)
(5.93904 -2.21426 0)
(6.48132 -0.607913 0)
(6.49283 0.966105 0)
(6.15112 2.38021 0)
(5.565 3.58027 0)
(4.76514 4.52131 0)
(3.9654 5.19584 0)
(3.12534 5.65239 0)
(2.34984 5.96303 0)
(1.77469 6.16265 0)
(1.28365 6.32106 0)
(0.884212 6.52779 0)
(0.554694 6.86862 0)
(-5.33694 4.69162 0)
(-6.61201 2.21049 0)
(-7.17278 -0.607987 0)
(-5.57503 -3.34809 0)
(-4.53004 -5.96576 0)
(-2.07519 -7.88415 0)
(1.46053 -8.34933 0)
(3.99459 -6.96082 0)
(6.13757 -5.21056 0)
(7.66125 -2.98621 0)
(8.35173 -0.630178 0)
(8.26405 1.43249 0)
(7.72637 3.16365 0)
(6.90585 4.59308 0)
(5.68887 5.61573 0)
(4.63001 6.30145 0)
(3.625 6.59636 0)
(2.6323 6.63387 0)
(1.96167 6.67219 0)
(1.45181 6.72954 0)
(1.12862 6.83522 0)
(0.966196 7.09346 0)
(-8.50014 6.67842 0)
(-9.23527 3.20323 0)
(-8.89266 -0.657629 0)
(-7.1051 -4.44244 0)
(-4.84039 -7.52527 0)
(-2.19449 -9.81743 0)
(0.855904 -10.7296 0)
(6.01097 -10.0299 0)
(8.14827 -7.59734 0)
(9.69316 -4.45671 0)
(10.2404 -1.3476 0)
(9.93374 1.37828 0)
(9.01208 3.63565 0)
(7.88883 5.50135 0)
(6.51267 6.74718 0)
(5.42911 7.13482 0)
(4.26503 7.77795 0)
(2.98968 7.72424 0)
(2.22969 7.37607 0)
(1.61695 7.11944 0)
(1.46191 6.99618 0)
(1.64061 7.04724 0)
(-7.43784 7.69678 0)
(-9.72102 2.6152 0)
(-10.3449 -2.78444 0)
(-9.16418 -7.93012 0)
(-5.8104 -12.3635 0)
(-0.936811 -14.5639 0)
(4.27802 -14.5866 0)
(8.31108 -12.5883 0)
(11.1149 -9.24367 0)
(12.851 -4.88597 0)
(12.3958 -0.664577 0)
(11.7043 2.70854 0)
(10.5076 5.19595 0)
(8.88446 7.02587 0)
(6.9646 8.05031 0)
(5.07235 8.69184 0)
(3.36476 8.73931 0)
(2.29931 8.55875 0)
(1.51463 8.08308 0)
(1.29922 7.38307 0)
(1.53096 6.80532 0)
(2.10017 6.52985 0)
(-3.04028 13.9693 0)
(-4.79783 7.23686 0)
(-5.68905 -0.513148 0)
(-5.69492 -8.04513 0)
(-4.25284 -15.402 0)
(-0.183562 -21.4968 0)
(6.20617 -20.9592 0)
(11.434 -17.6419 0)
(14.5377 -13.6248 0)
(16.2894 -5.16628 0)
(14.3174 -0.750875 0)
(13.5898 2.97165 0)
(11.791 6.89184 0)
(9.91857 9.24733 0)
(7.88665 10.4341 0)
(5.68882 10.7983 0)
(3.76551 10.4924 0)
(2.53673 9.52644 0)
(1.7436 8.49669 0)
(1.55978 7.27067 0)
(2.05251 6.17235 0)
(3.19177 5.46365 0)
(18.5718 10.5773 0)
(14.7437 5.60158 0)
(10.6236 -0.093861 0)
(7.04643 -8.03525 0)
(3.91478 -16.0862 0)
(2.26912 -22.9565 0)
(4.85218 -23.8713 0)
(8.09261 -20.537 0)
(11.2926 -13.9766 0)
(10.8309 -3.49949 0)
(10.2863 0.697335 0)
(9.14424 4.78363 0)
(7.53805 7.44567 0)
(6.14877 10.6742 0)
(4.76839 12.4325 0)
(3.5642 12.7348 0)
(2.79123 12.0151 0)
(2.33432 10.7336 0)
(2.15941 9.03365 0)
(2.64855 7.17143 0)
(3.62705 5.29012 0)
(5.38436 3.77569 0)
(7.41947 20.2895 0)
(7.29669 13.0178 0)
(6.6236 4.46079 0)
(5.84574 -4.19125 0)
(5.82979 -15.9327 0)
(5.28938 -24.7912 0)
(4.02676 -27.5707 0)
(2.5563 -24.136 0)
(1.35227 -16.7661 0)
(-0.188147 -6.77222 0)
(-0.999731 1.09325 0)
(-1.68873 6.33702 0)
(-2.14294 9.90384 0)
(-2.04588 11.975 0)
(-1.21969 12.8528 0)
(-0.0517303 12.7793 0)
(1.23916 11.8739 0)
(2.68946 10.3467 0)
(4.13725 8.38754 0)
(5.8418 6.16974 0)
(7.83646 3.75578 0)
(10.5167 1.31792 0)
(19.6751 10.5984 0)
(25.28 5.90134 0)
(26.9345 -0.357098 0)
(23.3905 -7.51621 0)
(21.02 -14.974 0)
(14.1501 -21.1035 0)
(3.08754 -20.1789 0)
(-5.34905 -15.0907 0)
(-11.4983 -8.07307 0)
(-15.0359 -0.722337 0)
(-16.1893 4.2222 0)
(-14.792 7.41387 0)
(-12.3632 9.62138 0)
(-8.70326 10.8657 0)
(-4.13752 11.2293 0)
(0.656248 10.876 0)
(5.30713 9.77929 0)
(9.49191 8.14833 0)
(12.9218 6.14535 0)
(15.9934 3.83061 0)
(18.486 1.16902 0)
(21.3084 -2.09617 0)
(26.6119 5.05013 0)
(35.017 2.85523 0)
(38.7376 1.21049 0)
(36.6588 -2.60225 0)
(28.7758 -4.56397 0)
(16.1523 -6.89977 0)
(0.681017 -6.3336 0)
(-8.32995 -3.94071 0)
(-18.0003 -1.51142 0)
(-22.3358 0.836244 0)
(-21.516 2.15191 0)
(-20.4578 2.88287 0)
(-14.0331 3.25126 0)
(-8.04339 2.93287 0)
(-1.9567 2.62861 0)
(5.40956 2.3792 0)
(12.1594 1.95326 0)
(17.537 1.41014 0)
(22.0008 0.734948 0)
(25.1162 -0.232764 0)
(25.6568 -1.5522 0)
(27.0883 -3.30823 0)
(-7.87328 1.43846 0)
(-9.38406 0.929822 0)
(-10.4574 0.178057 0)
(-10.5809 -0.564221 0)
(-10.3286 -0.81479 0)
(-9.72305 -0.809806 0)
(-9.14237 -0.764504 0)
(-8.44822 -0.424687 0)
(-7.8274 -0.149305 0)
(-7.11942 -0.016635 0)
(-6.18813 -0.024586 0)
(-5.14162 -0.141868 0)
(-3.97627 -0.293466 0)
(-2.91662 -0.409897 0)
(-2.15228 -0.450561 0)
(-1.79816 -0.258696 0)
(-1.7107 -0.0678598 0)
(-1.73987 -0.0242856 0)
(-1.60232 -0.101907 0)
(-0.965078 -0.394703 0)
(0.547108 -0.93007 0)
(3.33967 -1.65565 0)
(6.97476 -2.77196 0)
(11.6745 -2.9537 0)
(17.3122 -2.91627 0)
(22.5784 -2.46101 0)
(26.5232 -1.5734 0)
(28.4209 -0.34112 0)
(27.8939 0.949242 0)
(24.8354 2.24736 0)
(19.3346 3.44344 0)
(11.7304 4.35013 0)
(2.81975 4.738 0)
(-5.8689 4.37839 0)
(-13.8644 4.49007 0)
(-21.1897 3.72503 0)
(-26.7127 2.37024 0)
(-29.6694 0.712371 0)
(-29.697 -0.964479 0)
(-26.5477 -2.64816 0)
(-20.6804 -3.74037 0)
(-12.9766 -4.34451 0)
(-4.40316 -4.32563 0)
(3.85533 -4.26031 0)
(11.1758 -3.58764 0)
(16.9984 -2.46578 0)
(20.5954 -1.10737 0)
(21.3651 0.490806 0)
(19.0021 2.05059 0)
(13.6141 3.46636 0)
(5.80221 4.42469 0)
(-3.40073 4.79732 0)
(-13.1271 5.36736 0)
(-22.495 4.87373 0)
(-30.1894 3.21382 0)
(-34.9126 1.26329 0)
(-35.8876 -0.786715 0)
(-32.821 -2.73464 0)
(-26.5707 -4.43458 0)
(-16.5364 -6.03722 0)
(-4.34926 -7.05192 0)
(8.65226 -7.12985 0)
(21.4362 -6.20123 0)
(31.5125 -3.51221 0)
(36.5979 -1.58606 0)
(38.2848 0.435974 0)
(35.6989 2.41364 0)
(29.5195 3.88626 0)
(20.732 4.56497 0)
(11.3667 5.15485 0)
(2.84486 4.55061 0)
(-5.02864 3.45732 0)
(-11.0289 2.27497 0)
(-14.7141 1.15423 0)
(-16.0429 0.162339 0)
(-15.9737 -0.609121 0)
(-14.3124 -1.26279 0)
(-11.3567 -1.7031 0)
(-7.71786 -1.89335 0)
(-3.72049 -1.89055 0)
(0.0854921 -1.71568 0)
(3.35885 -1.41424 0)
(5.83701 -0.957713 0)
(7.35008 -0.481267 0)
(7.85405 0.0286757 0)
(7.2753 0.501981 0)
(5.70711 0.823791 0)
(3.77907 1.1387 0)
(1.70052 1.13996 0)
(-0.470595 0.994081 0)
(-2.39737 0.779777 0)
(-4.06069 0.536096 0)
(-5.06906 0.397037 0)
(-5.60248 0.186009 0)
(-5.86548 0.00259939 0)
(-5.77336 -0.147896 0)
(-5.39613 -0.264513 0)
(-4.77782 -0.359196 0)
(-3.96482 -0.414464 0)
(-3.04441 -0.421428 0)
(-2.11619 -0.390724 0)
(-1.25234 -0.338856 0)
(-0.51219 -0.285376 0)
(0.0956277 -0.238234 0)
(0.58128 -0.204961 0)
(-8.17624 1.17567 0)
(-7.24613 1.26251 0)
(-6.28246 1.11935 0)
(-5.5248 0.589926 0)
(-5.34157 -0.0375585 0)
(-5.37696 -0.500365 0)
(-5.70435 -0.647479 0)
(-5.52741 -0.606099 0)
(-5.42691 -0.867463 0)
(-5.09884 -1.42466 0)
(-4.61653 -1.87905 0)
(-3.896 -2.02263 0)
(-2.92082 -1.86161 0)
(-1.82322 -1.4123 0)
(-0.815606 -0.814732 0)
(-0.272753 -0.159493 0)
(-0.251794 0.255902 0)
(-0.480542 0.144729 0)
(-0.427928 -0.470089 0)
(-0.012558 -1.46306 0)
(1.14846 -2.8922 0)
(3.2083 -4.77689 0)
(7.09681 -6.98901 0)
(12.5578 -8.24712 0)
(18.0942 -8.36256 0)
(23.166 -7.13317 0)
(26.975 -4.59694 0)
(28.3425 -0.868327 0)
(26.9935 2.91395 0)
(22.7556 6.59162 0)
(16.5651 9.82724 0)
(8.83896 12.366 0)
(-0.162561 14.0481 0)
(-9.1072 14.2289 0)
(-16.3513 12.4663 0)
(-23.3571 9.43334 0)
(-27.726 5.61083 0)
(-29.3953 1.51379 0)
(-28.9061 -2.40995 0)
(-25.4782 -7.02401 0)
(-19.1473 -9.98894 0)
(-11.4193 -12.0706 0)
(-3.48385 -12.9548 0)
(5.08412 -11.7802 0)
(12.4409 -9.58125 0)
(17.7423 -6.67176 0)
(20.6642 -3.25997 0)
(20.8386 1.18421 0)
(18.1274 5.57256 0)
(12.5686 9.72438 0)
(4.48751 13.4763 0)
(-5.37655 15.5631 0)
(-14.3761 15.3165 0)
(-23.6215 12.6683 0)
(-30.1134 7.89732 0)
(-33.4923 3.11239 0)
(-34.0752 -1.86435 0)
(-31.5292 -6.67886 0)
(-25.8889 -11.5986 0)
(-16.2714 -15.6959 0)
(-4.36183 -18.439 0)
(8.84706 -18.2574 0)
(22.47 -15.8463 0)
(31.9494 -11.3634 0)
(36.052 -5.72752 0)
(37.0496 0.448981 0)
(33.3885 6.87833 0)
(25.8425 11.3852 0)
(17.1644 13.3124 0)
(8.68381 13.7327 0)
(0.6016 11.9088 0)
(-5.88286 9.19818 0)
(-10.6134 6.15932 0)
(-13.6448 3.28685 0)
(-14.8793 0.781683 0)
(-14.4452 -1.47843 0)
(-12.6965 -3.45418 0)
(-9.82854 -4.93496 0)
(-6.29499 -5.64504 0)
(-2.62207 -5.62921 0)
(0.771667 -5.02088 0)
(3.52394 -3.99273 0)
(5.44383 -2.58036 0)
(6.50006 -1.30254 0)
(6.77637 0.0342605 0)
(6.13742 1.47968 0)
(4.96039 2.6185 0)
(3.12847 3.29684 0)
(0.906236 3.32411 0)
(-1.11105 2.92944 0)
(-2.81615 2.30951 0)
(-4.15958 1.60643 0)
(-5.06091 1.04596 0)
(-5.48973 0.462527 0)
(-5.56932 -0.0360046 0)
(-5.35089 -0.414044 0)
(-4.89907 -0.684086 0)
(-4.2443 -0.99509 0)
(-3.41528 -1.25659 0)
(-2.50621 -1.36642 0)
(-1.625 -1.35735 0)
(-0.8474 -1.26054 0)
(-0.212525 -1.08578 0)
(0.288492 -0.881752 0)
(0.689081 -0.697908 0)
(-5.21397 1.12426 0)
(-5.50527 0.41187 0)
(-5.64778 -0.365014 0)
(-5.57952 -0.982223 0)
(-5.1986 -1.35049 0)
(-4.52777 -1.46797 0)
(-3.50911 -1.41904 0)
(-2.29065 -1.26686 0)
(-0.884409 -1.06239 0)
(0.22946 -0.993768 0)
(0.695325 -1.19445 0)
(0.75157 -1.54506 0)
(0.499814 -1.83203 0)
(-0.0153308 -1.85579 0)
(-0.472427 -1.50897 0)
(-0.348432 -0.890159 0)
(0.625189 -0.185492 0)
(1.99532 0.0295938 0)
(2.66843 -0.71596 0)
(3.20876 -2.6118 0)
(3.69908 -5.50066 0)
(4.54262 -9.17756 0)
(6.27548 -12.9779 0)
(9.47178 -14.3165 0)
(13.8759 -13.2766 0)
(18.2954 -10.0317 0)
(21.6528 -5.1125 0)
(22.5964 0.763202 0)
(20.8618 6.76297 0)
(17.3777 12.3204 0)
(11.9062 16.9698 0)
(5.03467 20.4188 0)
(-2.22655 22.5294 0)
(-8.64844 23.1875 0)
(-13.9592 18.8019 0)
(-17.624 13.3724 0)
(-19.775 7.24338 0)
(-20.5876 0.830698 0)
(-21.4684 -6.05643 0)
(-19.6779 -12.7191 0)
(-14.9429 -17.4882 0)
(-9.41849 -19.6627 0)
(-2.4467 -19.8275 0)
(4.6847 -17.6865 0)
(9.77362 -14.0808 0)
(13.284 -9.22436 0)
(15.7745 -3.46994 0)
(15.8172 3.1245 0)
(12.627 9.78531 0)
(7.87727 16.0989 0)
(1.8734 21.6468 0)
(-3.94152 25.79 0)
(-10.9852 23.9418 0)
(-17.5462 18.9495 0)
(-21.4621 11.9622 0)
(-22.6893 4.33095 0)
(-23.3961 -3.77943 0)
(-23.1078 -12.8043 0)
(-20.7516 -20.7517 0)
(-14.6608 -26.3185 0)
(-5.23904 -29.0501 0)
(5.28561 -28.9549 0)
(14.8797 -24.4782 0)
(21.5719 -17.8468 0)
(25.347 -7.92884 0)
(26.1851 2.79141 0)
(24.7005 12.5871 0)
(20.4868 19.3783 0)
(15.644 22.9398 0)
(8.68585 21.7892 0)
(1.77293 18.8695 0)
(-3.92966 14.6417 0)
(-8.41577 9.38274 0)
(-11.5905 4.21748 0)
(-13.5467 -0.0223167 0)
(-13.9999 -3.32806 0)
(-12.8183 -6.12565 0)
(-10.0783 -8.09413 0)
(-6.48993 -8.74415 0)
(-2.90543 -8.50163 0)
(0.228463 -7.5236 0)
(2.75465 -6.03759 0)
(4.37994 -4.23776 0)
(5.15907 -2.10672 0)
(5.75493 0.363719 0)
(6.11457 2.66193 0)
(5.36418 4.45315 0)
(3.72112 5.32514 0)
(1.95478 5.45809 0)
(0.321333 4.90173 0)
(-1.05095 3.934 0)
(-2.14702 2.83596 0)
(-2.9887 1.77727 0)
(-3.59766 0.761724 0)
(-3.96575 -0.182026 0)
(-4.21111 -1.03476 0)
(-4.41131 -1.78756 0)
(-4.44671 -2.29356 0)
(-4.14862 -2.51389 0)
(-3.58253 -2.43467 0)
(-2.89916 -2.105 0)
(-2.18058 -1.65595 0)
(-1.47917 -1.1844 0)
(-0.817115 -0.803174 0)
(-0.210224 -0.587494 0)
(-3.16502 1.62692 0)
(-3.89254 1.00914 0)
(-4.72474 0.333492 0)
(-5.63524 -0.317213 0)
(-6.56204 -0.909997 0)
(-7.42721 -1.42818 0)
(-8.16849 -1.8573 0)
(-8.71138 -2.19642 0)
(-9.07519 -2.45392 0)
(-8.93465 -2.58137 0)
(-8.51509 -2.60483 0)
(-7.85573 -2.56572 0)
(-6.94836 -2.45462 0)
(-5.79359 -2.25606 0)
(-4.3517 -2.03655 0)
(-2.48212 -1.94374 0)
(-0.0140404 -2.01706 0)
(3.09905 -2.06562 0)
(6.77968 -2.09876 0)
(10.4345 -2.55586 0)
(13.7267 -3.82749 0)
(15.6592 -6.29354 0)
(15.7044 -9.90578 0)
(12.8599 -13.4817 0)
(9.01881 -14.9289 0)
(6.27641 -14.2047 0)
(4.51521 -8.8028 0)
(3.47507 -0.776814 0)
(1.9111 7.89912 0)
(-0.424995 15.5392 0)
(-3.58055 21.3017 0)
(-7.08447 25.2932 0)
(-9.34386 27.1542 0)
(-11.6942 26.5189 0)
(-12.8691 21.607 0)
(-10.3033 15.475 0)
(-6.50594 8.83531 0)
(-3.01956 2.39811 0)
(-1.12529 -3.17182 0)
(0.238868 -9.64898 0)
(0.107104 -18.2682 0)
(-0.792924 -24.7444 0)
(-0.821378 -27.8408 0)
(1.34657 -25.0284 0)
(2.50787 -19.4587 0)
(3.10776 -12.2632 0)
(3.65736 -4.18274 0)
(3.15 2.32977 0)
(1.57385 12.0195 0)
(-0.457495 19.6658 0)
(-1.71574 26.253 0)
(-4.68504 30.7826 0)
(-8.47795 29.5148 0)
(-8.55266 22.4879 0)
(-6.66892 14.334 0)
(-3.48633 6.52602 0)
(-1.64405 -0.571293 0)
(-0.945443 -6.27812 0)
(-2.42913 -20.1672 0)
(-5.6425 -32.2601 0)
(-6.83263 -41.3177 0)
(-3.25441 -41.4267 0)
(2.50079 -33.8236 0)
(7.76663 -22.8671 0)
(11.1158 -11.7311 0)
(14.4441 -3.19517 0)
(17.5957 14.858 0)
(20.427 24.797 0)
(19.8224 28.4091 0)
(15.2167 27.9513 0)
(10.1654 25.478 0)
(4.92611 21.2938 0)
(-0.832631 15.2405 0)
(-5.56976 9.68822 0)
(-9.47531 4.16843 0)
(-13.5871 -2.47507 0)
(-17.4024 -7.95801 0)
(-19.01 -12.6409 0)
(-17.0495 -14.4132 0)
(-13.6957 -13.7605 0)
(-9.6274 -11.5624 0)
(-5.72981 -8.70204 0)
(-2.76437 -4.97306 0)
(-0.143445 -2.78817 0)
(1.26697 -0.923261 0)
(2.28145 2.05216 0)
(2.90102 5.0423 0)
(2.86507 6.65039 0)
(2.56881 6.85425 0)
(2.17725 6.06918 0)
(1.81685 4.89046 0)
(1.59122 3.61278 0)
(1.47676 2.45684 0)
(1.43147 1.48443 0)
(1.41145 0.678394 0)
(1.36211 0.274495 0)
(1.13698 0.53654 0)
(0.791553 -0.367365 0)
(0.0404934 -1.48484 0)
(-0.938539 -2.15137 0)
(-1.90733 -2.62449 0)
(-2.66193 -2.86889 0)
(-3.19792 -2.87286 0)
(-3.45887 -2.75193 0)
(-3.31686 -2.60746 0)
(-2.27671 2.36176 0)
(-3.12351 1.92922 0)