/*--------------------------------*- C++ -*----------------------------------*\
| =========                 |                                                 |
| \\      /  F ield         | OpenFOAM: The Open Source CFD Toolbox           |
|  \\    /   O peration     | Version:  2206                                  |
|   \\  /    A nd           | Website:  www.openfoam.com                      |
|    \\/     M anipulation  |                                                 |
\*---------------------------------------------------------------------------*/
FoamFile
{
    version     2.0;
    format      ascii;
    arch        "LSB;label=32;scalar=64";
    class       surfaceScalarField;
    location    "18.2001";
    object      phi_0;
}
// * * * * * * * * * * * * * * * * * * * * * * * * * * * * * * * * * * * * * //

dimensions      [0 3 -1 0 0 0 0];

oriented        oriented;

internalField   nonuniform List<scalar> 
3474
(
4.47326e-07
-1.22195e-07
5.67189e-07
-1.19862e-07
6.82828e-07
-1.1564e-07
7.92696e-07
-1.09867e-07
8.95874e-07
-1.03178e-07
9.9203e-07
-9.61562e-08
1.08131e-06
-8.92771e-08
1.16422e-06
-8.29181e-08
1.24155e-06
-7.7327e-08
1.31413e-06
-7.25742e-08
1.38278e-06
-6.86498e-08
1.44824e-06
-6.54657e-08
1.51112e-06
-6.28802e-08
1.57173e-06
-6.06046e-08
1.6301e-06
-5.83763e-08
1.68615e-06
-5.60482e-08
1.73967e-06
-5.3517e-08
1.79041e-06
-5.07458e-08
1.83815e-06
-4.7739e-08
1.8827e-06
-4.45429e-08
1.92393e-06
-4.12373e-08
1.96185e-06
-3.79153e-08
1.99652e-06
-3.46752e-08
2.02814e-06
-3.16151e-08
2.05696e-06
-2.88237e-08
2.08333e-06
-2.63724e-08
2.10765e-06
-2.43109e-08
2.13031e-06
-2.26656e-08
2.15176e-06
-2.1447e-08
2.1724e-06
-2.06409e-08
2.19263e-06
-2.02355e-08
2.21281e-06
-2.01795e-08
2.23325e-06
-2.04387e-08
2.25426e-06
-2.1005e-08
2.27611e-06
-2.1854e-08
2.29908e-06
-2.29684e-08
2.32343e-06
-2.43514e-08
2.34945e-06
-2.60228e-08
2.37747e-06
-2.80189e-08
2.40786e-06
-3.03913e-08
2.44107e-06
-3.32058e-08
2.47761e-06
-3.65437e-08
2.51811e-06
-4.05001e-08
2.56331e-06
-4.51923e-08
2.61407e-06
-5.07614e-08
2.67146e-06
-5.73913e-08
2.73679e-06
-6.5331e-08
2.81176e-06
-7.49714e-08
2.89863e-06
-8.68677e-08
3.00072e-06
-1.02089e-07
3.12314e-06
-1.22425e-07
3.27563e-06
-1.52485e-07
3.47931e-06
-2.03687e-07
-2.81279e-07
3.76059e-06
3.52197e-06
-2.3655e-07
3.63165e-06
-2.2954e-07
3.73577e-06
-2.19763e-07
3.83419e-06
-2.08285e-07
3.92696e-06
-1.95946e-07
4.01417e-06
-1.8337e-07
4.09601e-06
-1.71118e-07
4.1728e-06
-1.59705e-07
4.24504e-06
-1.49567e-07
4.31315e-06
-1.40688e-07
4.37755e-06
-1.33048e-07
4.43857e-06
-1.26485e-07
4.49646e-06
-1.20769e-07
4.55146e-06
-1.15612e-07
4.60382e-06
-1.10734e-07
4.6537e-06
-1.05924e-07
4.70122e-06
-1.01038e-07
4.74649e-06
-9.60125e-08
4.78953e-06
-9.07868e-08
4.83038e-06
-8.53849e-08
4.86905e-06
-7.9909e-08
4.9056e-06
-7.44693e-08
4.94011e-06
-6.91854e-08
4.97268e-06
-6.41866e-08
5.00346e-06
-5.95959e-08
5.0326e-06
-5.55159e-08
5.06031e-06
-5.20223e-08
5.08681e-06
-4.91617e-08
5.11232e-06
-4.69623e-08
5.13711e-06
-4.54249e-08
5.1614e-06
-4.45334e-08
5.18549e-06
-4.42647e-08
5.20965e-06
-4.45952e-08
5.23413e-06
-4.54879e-08
5.2592e-06
-4.6924e-08
5.28513e-06
-4.88993e-08
5.31221e-06
-5.14284e-08
5.34073e-06
-5.45467e-08
5.37102e-06
-5.83122e-08
5.40344e-06
-6.28058e-08
5.43836e-06
-6.81307e-08
5.47623e-06
-7.44157e-08
5.51755e-06
-8.18147e-08
5.56287e-06
-9.05179e-08
5.61287e-06
-1.00759e-07
5.66832e-06
-1.12842e-07
5.73017e-06
-1.27177e-07
5.79955e-06
-1.4435e-07
5.87789e-06
-1.65211e-07
5.96694e-06
-1.91136e-07
6.06876e-06
-2.24242e-07
6.18445e-06
-2.68176e-07
6.30872e-06
-3.27965e-07
-4.03569e-07
6.43101e-06
6.6178e-06
-2.67989e-07
6.64929e-06
-2.61031e-07
6.68079e-06
-2.51256e-07
6.71227e-06
-2.39767e-07
6.74365e-06
-2.27331e-07
6.77481e-06
-2.14525e-07
6.80557e-06
-2.01878e-07
6.83577e-06
-1.89912e-07
6.86531e-06
-1.79098e-07
6.89403e-06
-1.69416e-07
6.92179e-06
-1.60809e-07
6.94846e-06
-1.53149e-07
6.97396e-06
-1.46272e-07
6.99829e-06
-1.39945e-07
7.0215e-06
-1.33937e-07
7.04363e-06
-1.2806e-07
7.06478e-06
-1.22184e-07
7.08501e-06
-1.16241e-07
7.10439e-06
-1.10169e-07
7.123e-06
-1.03994e-07
7.1409e-06
-9.78077e-08
7.15814e-06
-9.17122e-08
7.17477e-06
-8.58142e-08
7.19082e-06
-8.02427e-08
7.20636e-06
-7.51281e-08
7.22142e-06
-7.05788e-08
7.23607e-06
-6.6672e-08
7.25037e-06
-6.3459e-08
7.26438e-06
-6.09787e-08
7.2782e-06
-5.92412e-08
7.29191e-06
-5.82429e-08
7.30562e-06
-5.79763e-08
7.31945e-06
-5.84255e-08
7.33353e-06
-5.95654e-08
7.34799e-06
-6.13863e-08
7.36299e-06
-6.38987e-08
7.3787e-06
-6.71339e-08
7.39529e-06
-7.11457e-08
7.41299e-06
-7.60123e-08
7.43203e-06
-8.18375e-08
7.45265e-06
-8.87512e-08
7.47514e-06
-9.69112e-08
7.49983e-06
-1.06506e-07
7.52708e-06
-1.17762e-07
7.55728e-06
-1.30957e-07
7.59087e-06
-1.46441e-07
7.62837e-06
-1.64673e-07
7.67027e-06
-1.86251e-07
7.71702e-06
-2.11961e-07
7.7688e-06
-2.42916e-07
7.82514e-06
-2.80575e-07
7.88366e-06
-3.26705e-07
7.93879e-06
-3.83087e-07
-4.48267e-07
7.98348e-06
8.09128e-06
-2.60498e-07
8.08543e-06
-2.55181e-07
8.08154e-06
-2.47367e-07
8.07966e-06
-2.37889e-07
8.07971e-06
-2.2738e-07
8.08157e-06
-2.16384e-07
8.08509e-06
-2.05399e-07
8.08998e-06
-1.94802e-07
8.09584e-06
-1.84949e-07
8.10237e-06
-1.75945e-07
8.10933e-06
-1.67774e-07
8.11652e-06
-1.60336e-07
8.12377e-06
-1.53529e-07
8.131e-06
-1.4717e-07
8.13814e-06
-1.4108e-07
8.14521e-06
-1.35129e-07
8.15224e-06
-1.29213e-07
8.15927e-06
-1.23271e-07
8.16638e-06
-1.17275e-07
8.17363e-06
-1.11245e-07
8.18107e-06
-1.05249e-07
8.18872e-06
-9.93668e-08
8.19659e-06
-9.36804e-08
8.20466e-06
-8.83178e-08
8.21294e-06
-8.34026e-08
8.2214e-06
-7.90377e-08
8.23001e-06
-7.52841e-08
8.23875e-06
-7.22012e-08
8.2476e-06
-6.98235e-08
8.25653e-06
-6.81721e-08
8.26553e-06
-6.72482e-08
8.27462e-06
-6.70649e-08
8.28382e-06
-6.76218e-08
8.29316e-06
-6.89035e-08
8.30268e-06
-7.09108e-08
8.31245e-06
-7.36667e-08
8.32253e-06
-7.72166e-08
8.33301e-06
-8.16277e-08
8.34399e-06
-8.69922e-08
8.35558e-06
-9.34273e-08
8.36791e-06
-1.01076e-07
8.38111e-06
-1.10109e-07
8.39532e-06
-1.20724e-07
8.41072e-06
-1.33158e-07
8.42745e-06
-1.47682e-07
8.44563e-06
-1.6463e-07
8.46536e-06
-1.84402e-07
8.48655e-06
-2.07441e-07
8.50891e-06
-2.34317e-07
8.53177e-06
-2.65779e-07
8.55381e-06
-3.02614e-07
8.57254e-06
-3.45433e-07
8.5838e-06
-3.94344e-07
-4.47777e-07
8.58331e-06
8.55052e-06
-2.41171e-07
8.53298e-06
-2.37642e-07
8.51768e-06
-2.32073e-07
8.50477e-06
-2.24972e-07
8.49424e-06
-2.16853e-07
8.48602e-06
-2.0817e-07
8.47997e-06
-1.99347e-07
8.47583e-06
-1.90664e-07
8.47331e-06
-1.82421e-07
8.47207e-06
-1.74711e-07
8.47184e-06
-1.67547e-07
8.47238e-06
-1.60871e-07
8.4735e-06
-1.54646e-07
8.47507e-06
-1.48741e-07
8.47702e-06
-1.43028e-07
8.4793e-06
-1.37415e-07
8.48192e-06
-1.31831e-07
8.48489e-06
-1.26239e-07
8.48824e-06
-1.20632e-07
8.49202e-06
-1.15019e-07
8.49625e-06
-1.09479e-07
8.5009e-06
-1.04019e-07
8.50593e-06
-9.87069e-08
8.51135e-06
-9.3745e-08
8.51716e-06
-8.92108e-08
8.52331e-06
-8.51822e-08
8.52973e-06
-8.17049e-08
8.53639e-06
-7.88634e-08
8.54324e-06
-7.66729e-08
8.55021e-06
-7.51457e-08
8.55726e-06
-7.42996e-08
8.56442e-06
-7.4223e-08
8.57166e-06
-7.48619e-08
8.57896e-06
-7.62052e-08
8.58632e-06
-7.82631e-08
8.59372e-06
-8.10692e-08
8.60118e-06
-8.46787e-08
8.60872e-06
-8.9168e-08
8.61637e-06
-9.46391e-08
8.62416e-06
-1.01216e-07
8.63213e-06
-1.09048e-07
8.64033e-06
-1.18309e-07
8.6488e-06
-1.29196e-07
8.65757e-06
-1.4193e-07
8.66664e-06
-1.56753e-07
8.67594e-06
-1.73931e-07
8.68531e-06
-1.93771e-07
8.69456e-06
-2.16685e-07
8.70333e-06
-2.43094e-07
8.71089e-06
-2.73335e-07
8.716e-06
-3.07728e-07
8.71703e-06
-3.46463e-07
8.71216e-06
-3.89469e-07
-4.35561e-07
8.69994e-06
8.66085e-06
-2.20193e-07
8.64124e-06
-2.18024e-07
8.62344e-06
-2.14279e-07
8.60773e-06
-2.09258e-07
8.59418e-06
-2.03304e-07
8.58282e-06
-1.9681e-07
8.5736e-06
-1.90129e-07
8.56639e-06
-1.83455e-07
8.56091e-06
-1.76939e-07
8.55688e-06
-1.70679e-07
8.55403e-06
-1.64702e-07
8.55215e-06
-1.58992e-07
8.55105e-06
-1.5354e-07
8.55058e-06
-1.48276e-07
8.55068e-06
-1.43124e-07
8.55127e-06
-1.3801e-07
8.55232e-06
-1.32881e-07
8.5538e-06
-1.27717e-07
8.55568e-06
-1.22511e-07
8.55795e-06
-1.17289e-07
8.56055e-06
-1.12075e-07
8.56354e-06
-1.07009e-07
8.56704e-06
-1.02205e-07
8.57096e-06
-9.76695e-08
8.57524e-06
-9.34933e-08
8.57986e-06
-8.97976e-08
8.58476e-06
-8.66094e-08
8.58993e-06
-8.40263e-08
8.59533e-06
-8.20726e-08
8.60099e-06
-8.0814e-08
8.6069e-06
-8.02097e-08
8.61296e-06
-8.02765e-08
8.61899e-06
-8.08922e-08
8.62497e-06
-8.21827e-08
8.63086e-06
-8.41558e-08
8.63664e-06
-8.68488e-08
8.64228e-06
-9.03233e-08
8.64778e-06
-9.46643e-08
8.65313e-06
-9.99855e-08
8.65832e-06
-1.06407e-07
8.66336e-06
-1.14096e-07
8.66827e-06
-1.23213e-07
8.67304e-06
-1.33971e-07
8.67767e-06
-1.46561e-07
8.6821e-06
-1.61181e-07
8.68622e-06
-1.78048e-07
8.68984e-06
-1.97392e-07
8.69261e-06
-2.1945e-07
8.694e-06
-2.44484e-07
8.69338e-06
-2.72718e-07
8.68991e-06
-3.0426e-07
8.68242e-06
-3.38968e-07
8.66929e-06
-3.76345e-07
-4.15306e-07
8.64904e-06
8.64786e-06
-1.99191e-07
8.628e-06
-1.98159e-07
8.60968e-06
-1.95955e-07
8.59319e-06
-1.92774e-07
8.57877e-06
-1.88881e-07
8.56642e-06
-1.84461e-07
8.55595e-06
-1.79655e-07
8.54714e-06
-1.74652e-07
8.53978e-06
-1.69571e-07
8.53366e-06
-1.64562e-07
8.5286e-06
-1.5964e-07
8.52443e-06
-1.54826e-07
8.52101e-06
-1.50116e-07
8.51821e-06
-1.45478e-07
8.51595e-06
-1.40862e-07
8.51416e-06
-1.36225e-07
8.51281e-06
-1.31533e-07
8.51187e-06
-1.26774e-07
8.51132e-06
-1.21958e-07
8.51114e-06
-1.1711e-07
8.51135e-06
-1.12288e-07
8.51188e-06
-1.07537e-07
8.51267e-06
-1.02995e-07
8.51374e-06
-9.87404e-08
8.51507e-06
-9.48256e-08
8.51662e-06
-9.13497e-08
8.51838e-06
-8.83666e-08
8.5203e-06
-8.59416e-08
8.52235e-06
-8.41244e-08
8.52447e-06
-8.29335e-08
8.52661e-06
-8.23537e-08
8.52877e-06
-8.24399e-08
8.53089e-06
-8.3012e-08
8.53289e-06
-8.41778e-08
8.53468e-06
-8.59467e-08
8.53619e-06
-8.83618e-08
8.53736e-06
-9.14851e-08
8.53809e-06
-9.53968e-08
8.53835e-06
-1.00242e-07
8.53802e-06
-1.06083e-07
8.53709e-06
-1.1316e-07
8.5354e-06
-1.21531e-07
8.53294e-06
-1.31504e-07
8.52957e-06
-1.43191e-07
8.52513e-06
-1.56747e-07
8.51941e-06
-1.72327e-07
8.5121e-06
-1.90085e-07
8.50279e-06
-2.10135e-07
8.49089e-06
-2.32585e-07
8.47563e-06
-2.57463e-07
8.45614e-06
-2.84769e-07
8.4314e-06
-3.14225e-07
8.40021e-06
-3.45155e-07
-3.76602e-07
8.36151e-06
8.55098e-06
-1.72767e-07
8.52523e-06
-1.72408e-07
8.50042e-06
-1.71146e-07
8.47674e-06
-1.69098e-07
8.4543e-06
-1.66436e-07
8.43315e-06
-1.63314e-07
8.41337e-06
-1.59871e-07
8.39491e-06
-1.56194e-07
8.37763e-06
-1.52296e-07
8.36139e-06
-1.48316e-07
8.34605e-06
-1.443e-07
8.3315e-06
-1.40281e-07
8.31765e-06
-1.36261e-07
8.30439e-06
-1.32224e-07
8.29168e-06
-1.28147e-07
8.27946e-06
-1.24002e-07
8.26769e-06
-1.1977e-07
8.25637e-06
-1.15447e-07
8.24546e-06
-1.1105e-07
8.23496e-06
-1.06612e-07
8.22486e-06
-1.02191e-07
8.21516e-06
-9.78298e-08
8.20581e-06
-9.36478e-08
8.19682e-06
-8.97498e-08
8.18816e-06
-8.61678e-08
8.17978e-06
-8.29717e-08
8.17165e-06
-8.02309e-08
8.1637e-06
-7.79988e-08
8.15589e-06
-7.6305e-08
8.14811e-06
-7.51602e-08
8.14031e-06
-7.45552e-08
8.13233e-06
-7.44604e-08
8.12412e-06
-7.4793e-08
8.11551e-06
-7.55713e-08
8.10638e-06
-7.68163e-08
8.09658e-06
-7.85653e-08
8.08597e-06
-8.0873e-08
8.07438e-06
-8.38112e-08
8.06166e-06
-8.75161e-08
8.04761e-06
-9.2035e-08
8.03205e-06
-9.75986e-08
8.01476e-06
-1.04239e-07
7.99549e-06
-1.12237e-07
7.97396e-06
-1.21659e-07
7.94979e-06
-1.32578e-07
7.92254e-06
-1.45081e-07
7.89163e-06
-1.59176e-07
7.85633e-06
-1.74831e-07
7.81581e-06
-1.92066e-07
7.76912e-06
-2.10775e-07
7.71519e-06
-2.30838e-07
7.65285e-06
-2.51885e-07
7.58094e-06
-2.73237e-07
-2.94085e-07
7.49842e-06
7.97898e-06
-1.18183e-07
7.92425e-06
-1.17683e-07
7.86975e-06
-1.16643e-07
7.81578e-06
-1.1513e-07
7.76259e-06
-1.13242e-07
7.71034e-06
-1.11064e-07
7.65929e-06
-1.08825e-07
7.60949e-06
-1.06398e-07
7.56081e-06
-1.03614e-07
7.51319e-06
-1.00695e-07
7.46662e-06
-9.77264e-08
7.42106e-06
-9.47233e-08
7.37649e-06
-9.16927e-08
7.3329e-06
-8.8634e-08
7.29029e-06
-8.55336e-08
7.24866e-06
-8.23761e-08
7.20804e-06
-7.91497e-08
7.16845e-06
-7.58555e-08
7.12991e-06
-7.25056e-08
7.09242e-06
-6.91297e-08
7.056e-06
-6.57674e-08
7.02064e-06
-6.24687e-08
6.9863e-06
-5.93074e-08
6.95289e-06
-5.63362e-08
6.92033e-06
-5.36108e-08
6.88858e-06
-5.12219e-08
6.85754e-06
-4.91916e-08
6.82707e-06
-4.75268e-08
6.797e-06
-4.62371e-08
6.76715e-06
-4.53084e-08
6.7373e-06
-4.47039e-08
6.70724e-06
-4.44068e-08
6.67683e-06
-4.43755e-08
6.64584e-06
-4.45817e-08
6.61404e-06
-4.50242e-08
6.5812e-06
-4.5723e-08
6.54704e-06
-4.67124e-08
6.51128e-06
-4.8046e-08
6.47356e-06
-4.9801e-08
6.43357e-06
-5.20429e-08
6.39086e-06
-5.48926e-08
6.34505e-06
-5.84221e-08
6.29557e-06
-6.27627e-08
6.24187e-06
-6.79588e-08
6.1833e-06
-7.40052e-08
6.11883e-06
-8.06089e-08
6.04707e-06
-8.74152e-08
5.96661e-06
-9.43772e-08
5.87608e-06
-1.01537e-07
5.77408e-06
-1.08778e-07
5.65913e-06
-1.1588e-07
5.52975e-06
-1.22513e-07
5.38476e-06
-1.2824e-07
-1.32592e-07
5.22326e-06
5.25266e-06
5.13497e-06
5.01833e-06
4.9032e-06
4.78996e-06
4.6789e-06
4.57007e-06
4.46367e-06
4.36006e-06
4.25936e-06
4.16164e-06
4.06691e-06
3.97522e-06
3.88659e-06
3.80105e-06
3.71868e-06
3.63953e-06
3.56367e-06
3.49117e-06
3.42204e-06
3.35627e-06
3.2938e-06
3.23449e-06
3.17816e-06
3.12455e-06
3.07332e-06
3.02413e-06
2.97661e-06
2.93037e-06
2.88506e-06
2.84036e-06
2.79595e-06
2.75157e-06
2.70699e-06
2.66197e-06
2.61625e-06
2.56953e-06
2.52149e-06
2.47169e-06
2.41964e-06
2.36475e-06
2.30633e-06
2.24357e-06
2.17561e-06
2.1016e-06
2.02099e-06
1.93358e-06
1.8392e-06
1.73766e-06
1.62889e-06
1.51301e-06
1.39049e-06
1.26225e-06
1.12966e-06
3.79596e-06
-4.83116e-07
4.47753e-07
3.88003e-06
-5.97206e-07
5.13133e-07
3.88333e-06
-6.52256e-07
6.48951e-07
3.85291e-06
-6.46118e-07
6.76546e-07
3.82542e-06
-5.97632e-07
6.25114e-07
3.84272e-06
-4.96586e-07
4.79294e-07
3.94928e-06
-3.64593e-07
2.58034e-07
4.18133e-06
-2.2356e-07
-8.4929e-09
4.5589e-06
-1.05987e-07
-2.71588e-07
5.07324e-06
-4.24561e-08
-4.71884e-07
5.69147e-06
-6.20283e-08
-5.562e-07
6.37617e-06
-1.79409e-07
-5.05292e-07
7.10013e-06
-4.03103e-07
-3.20855e-07
7.82635e-06
-7.48382e-07
2.21588e-08
8.46408e-06
-1.19343e-06
5.55709e-07
8.92574e-06
-1.62898e-06
1.16732e-06
9.19771e-06
-1.9689e-06
1.69693e-06
9.30458e-06
-2.19279e-06
2.08592e-06
9.28774e-06
-2.33006e-06
2.3469e-06
9.16747e-06
-2.38544e-06
2.50572e-06
8.95647e-06
-2.3489e-06
2.55989e-06
8.66962e-06
-2.23105e-06
2.5179e-06
8.32697e-06
-2.05321e-06
2.39586e-06
7.94834e-06
-1.83398e-06
2.2126e-06
7.5507e-06
-1.58858e-06
1.98623e-06
7.15176e-06
-1.33699e-06
1.73592e-06
6.77132e-06
-1.09462e-06
1.47507e-06
6.42859e-06
-8.64306e-07
1.20704e-06
6.12122e-06
-6.47934e-07
9.55306e-07
5.80289e-06
-4.66802e-07
7.85133e-07
5.4067e-06
-3.6492e-07
7.61109e-07
4.91299e-06
-3.73606e-07
8.67315e-07
4.38871e-06
-4.72005e-07
9.96284e-07
3.9321e-06
-5.87666e-07
1.04427e-06
3.61481e-06
-6.4744e-07
9.64735e-07
3.4621e-06
-6.06452e-07
7.59158e-07
3.46149e-06
-4.7026e-07
4.70873e-07
3.59133e-06
-2.54318e-07
1.24479e-07
3.82123e-06
1.51262e-08
-2.45025e-07
4.10015e-06
3.1758e-07
-5.96498e-07
4.39555e-06
6.1692e-07
-9.12323e-07
4.69448e-06
8.82146e-07
-1.18108e-06
4.98919e-06
1.10427e-06
-1.39898e-06
5.27506e-06
1.28163e-06
-1.56751e-06
5.55328e-06
1.41108e-06
-1.68929e-06
5.83022e-06
1.48861e-06
-1.76555e-06
6.11477e-06
1.50874e-06
-1.79328e-06
6.41566e-06
1.46476e-06
-1.76566e-06
6.74158e-06
1.34684e-06
-1.67276e-06
7.09569e-06
1.14831e-06
-1.50242e-06
7.47712e-06
8.64367e-07
-1.2458e-06
7.87149e-06
5.09175e-07
-9.03545e-07
8.2487e-06
1.14154e-07
-4.91356e-07
8.56841e-06
-2.61084e-07
-5.86284e-08
8.80291e-06
-5.73458e-07
3.38957e-07
8.93973e-06
-8.04525e-07
6.67704e-07
8.98348e-06
-9.54844e-07
9.11094e-07
8.94544e-06
-1.04056e-06
1.0786e-06
8.82196e-06
-1.05066e-06
1.17414e-06
8.61215e-06
-9.78009e-07
1.18782e-06
8.33608e-06
-8.47813e-07
1.12388e-06
8.01562e-06
-6.82934e-07
1.00339e-06
7.67374e-06
-5.10005e-07
8.51884e-07
7.32853e-06
-3.57454e-07
7.02657e-07
6.99007e-06
-2.49727e-07
5.88195e-07
6.66554e-06
-2.05326e-07
5.29851e-07
6.36314e-06
-2.30718e-07
5.33119e-07
6.09002e-06
-3.11343e-07
5.84467e-07
5.85057e-06
-4.17842e-07
6.57292e-07
5.64592e-06
-5.18323e-07
7.22972e-07
5.4755e-06
-5.88216e-07
7.58631e-07
5.34016e-06
-6.11598e-07
7.46942e-07
5.24287e-06
-5.76615e-07
6.73906e-07
5.18438e-06
-4.79434e-07
5.37918e-07
5.16353e-06
-3.2869e-07
3.49545e-07
5.17871e-06
-1.40926e-07
1.25741e-07
5.22747e-06
6.51627e-08
-1.1392e-07
5.30514e-06
2.71301e-07
-3.48975e-07
5.40683e-06
4.62473e-07
-5.64163e-07
5.52728e-06
6.28866e-07
-7.49307e-07
5.6613e-06
7.63694e-07
-8.97713e-07
5.80458e-06
8.62994e-07
-1.00628e-06
5.95409e-06
9.25102e-07
-1.07461e-06
6.10737e-06
9.50459e-07
-1.10373e-06
9.41e-07
-1.0956e-06
6.47046e-06
-5.22563e-07
6.48992e-06
-6.16664e-07
6.4929e-06
-6.55235e-07
6.49922e-06
-6.52443e-07
6.5255e-06
-6.23906e-07
6.59164e-06
-5.62724e-07
6.71566e-06
-4.88623e-07
6.91185e-06
-4.1975e-07
7.18599e-06
-3.8012e-07
7.53923e-06
-3.95693e-07
7.95308e-06
-4.75879e-07
8.40109e-06
-6.27423e-07
8.852e-06
-8.54017e-07
9.25129e-06
-1.14767e-06
9.54483e-06
-1.48697e-06
9.71826e-06
-1.80241e-06
9.78359e-06
-2.03422e-06
9.76215e-06
-2.17135e-06
9.66614e-06
-2.23405e-06
9.47944e-06
-2.19874e-06
9.20407e-06
-2.07353e-06
8.85846e-06
-1.88544e-06
8.4617e-06
-1.65645e-06
8.03321e-06
-1.40548e-06
7.59491e-06
-1.15028e-06
7.16659e-06
-9.08673e-07
6.76317e-06
-6.91198e-07
6.40359e-06
-5.04731e-07
6.10814e-06
-3.52478e-07
5.87859e-06
-2.37257e-07
5.67875e-06
-1.65077e-07
5.45135e-06
-1.46209e-07
5.15734e-06
-1.77998e-07
4.80383e-06
-2.34155e-07
4.43794e-06
-2.81544e-07
4.13259e-06
-3.01104e-07
3.93917e-06
-2.76838e-07
3.87059e-06
-1.85738e-07
3.91455e-06
-2.88327e-08
4.0615e-06
1.70622e-07
4.29316e-06
3.85259e-07
4.57352e-06
6.01795e-07
4.87633e-06
8.01456e-07
5.19196e-06
9.66005e-07
5.51847e-06
1.08456e-06
5.85744e-06
1.14964e-06
6.21328e-06
1.1529e-06
6.59177e-06
1.08627e-06
6.99845e-06
9.40166e-07
7.4307e-06
7.16055e-07
7.8727e-06
4.22361e-07
8.28411e-06
9.77646e-08
8.62717e-06
-2.28899e-07
8.88323e-06
-5.17152e-07
9.03989e-06
-7.30116e-07
9.10067e-06
-8.65307e-07
9.07888e-06
-9.33045e-07
8.95601e-06
-9.17692e-07
8.72638e-06
-8.21028e-07
8.42014e-06
-6.71765e-07
8.06694e-06
-4.94609e-07
7.69596e-06
-3.11954e-07
7.33103e-06
-1.45077e-07
6.985e-06
-1.14291e-08
6.6616e-06
7.36795e-08
6.36006e-06
9.6213e-08
6.0828e-06
4.65364e-08
5.83115e-06
-5.96877e-08
5.60596e-06
-1.92656e-07
5.40603e-06
-3.18395e-07
5.23167e-06
-4.1385e-07
5.08499e-06
-4.64919e-07
4.97112e-06
-4.62743e-07
4.89439e-06
-4.02711e-07
4.85654e-06
-2.90838e-07
4.85699e-06
-1.41377e-07
4.89351e-06
2.86487e-08
4.96233e-06
2.02474e-07
5.05856e-06
3.66242e-07
5.17799e-06
5.09439e-07
5.31667e-06
6.2502e-07
5.47083e-06
7.08834e-07
5.63679e-06
7.59142e-07
5.81117e-06
7.76073e-07
7.61079e-07
7.98938e-06
-5.28464e-07
7.97084e-06
-5.9812e-07
7.95057e-06
-6.34967e-07
7.93876e-06
-6.40626e-07
7.94374e-06
-6.28886e-07
7.98499e-06
-6.03979e-07
8.07405e-06
-5.77686e-07
8.21657e-06
-5.62262e-07
8.40766e-06
-5.71211e-07
8.63082e-06
-6.18852e-07
8.87848e-06
-7.23549e-07
9.1418e-06
-8.90743e-07
9.3956e-06
-1.10782e-06
9.61802e-06
-1.37009e-06
9.78573e-06
-1.65468e-06
9.87909e-06
-1.89576e-06
9.89848e-06
-2.05361e-06
9.8542e-06
-2.12707e-06
9.72652e-06
-2.10637e-06
9.50598e-06
-1.97821e-06
9.19922e-06
-1.76677e-06
8.81643e-06
-1.50265e-06
8.37691e-06
-1.21693e-06
7.90522e-06
-9.33785e-07
7.43225e-06
-6.77309e-07
6.98433e-06
-4.60754e-07
6.57891e-06
-2.85776e-07
6.22794e-06
-1.53763e-07
5.94077e-06
-6.53087e-08
5.72173e-06
-1.82218e-08
5.56416e-06
-7.50319e-09
5.44742e-06
-2.94717e-08
5.34818e-06
-7.87608e-08
5.25043e-06
-1.36403e-07
5.14768e-06
-1.78797e-07
5.0369e-06
-1.90319e-07
4.91568e-06
-1.55623e-07
4.80923e-06
-7.92857e-08
4.75129e-06
2.91056e-08
4.7668e-06
1.55117e-07
4.85955e-06
2.92504e-07
5.02629e-06
4.35061e-07
5.25706e-06
5.70682e-07
5.54006e-06
6.83004e-07
5.86618e-06
7.58444e-07
6.22871e-06
7.87113e-07
6.62137e-06
7.60244e-07
7.03728e-06
6.7036e-07
7.4654e-06
5.1205e-07
7.88769e-06
2.93755e-07
8.2769e-06
3.31522e-08
8.59349e-06
-2.18823e-07
8.8138e-06
-4.4921e-07
8.93006e-06
-6.33412e-07
8.94928e-06
-7.49337e-07
8.87308e-06
-7.89104e-07
8.6884e-06
-7.48362e-07
8.40688e-06
-6.36176e-07
8.06584e-06
-4.79983e-07
7.69757e-06
-3.03502e-07
7.32805e-06
-1.25083e-07
6.97772e-06
3.83708e-08
6.66064e-06
1.7201e-07
6.38345e-06
2.65759e-07
6.14234e-06
3.14791e-07
5.92611e-06
3.12438e-07
5.73158e-06
2.41073e-07
5.55353e-06
1.18355e-07
5.38434e-06
-2.34612e-08
5.22017e-06
-1.54223e-07
5.06227e-06
-2.55954e-07
4.91603e-06
-3.18683e-07
4.78923e-06
-3.35943e-07
4.69082e-06
-3.04298e-07
4.62696e-06
-2.26976e-07
4.60137e-06
-1.15787e-07
4.61633e-06
1.36856e-08
4.66924e-06
1.49563e-07
4.75466e-06
2.80825e-07
4.86883e-06
3.95269e-07
5.00781e-06
4.86037e-07
5.16765e-06
5.48998e-07
5.34525e-06
5.8154e-07
5.53826e-06
5.83065e-07
5.55405e-07
8.5615e-06
-5.06655e-07
8.52444e-06
-5.61065e-07
8.48747e-06
-5.97995e-07
8.46258e-06
-6.15734e-07
8.4544e-06
-6.20707e-07
8.47041e-06
-6.19987e-07
8.51308e-06
-6.20354e-07
8.58719e-06
-6.3638e-07
8.69788e-06
-6.81895e-07
8.84312e-06
-7.64092e-07
9.00901e-06
-8.89442e-07
9.17968e-06
-1.06141e-06
9.34667e-06
-1.2748e-06
9.49856e-06
-1.52198e-06
9.62169e-06
-1.77781e-06
9.70058e-06
-1.97465e-06
9.71778e-06
-2.07082e-06
9.67006e-06
-2.07935e-06
9.53237e-06
-1.96869e-06
9.28951e-06
-1.73535e-06
8.93889e-06
-1.41614e-06
8.50242e-06
-1.06618e-06
8.01082e-06
-7.25334e-07
7.50252e-06
-4.25482e-07
7.01198e-06
-1.86773e-07
6.56069e-06
-9.46302e-09
6.16489e-06
1.10027e-07
5.83656e-06
1.74565e-07
5.58115e-06
1.90098e-07
5.39709e-06
1.6584e-07
5.27569e-06
1.13891e-07
5.20528e-06
4.0946e-08
5.17368e-06
-4.71686e-08
5.16764e-06
-1.30361e-07
5.17955e-06
-1.90707e-07
5.21013e-06
-2.20898e-07
5.2643e-06
-2.09786e-07
5.34041e-06
-1.55401e-07
5.4374e-06
-6.78887e-08
5.5526e-06
3.99198e-08
5.69221e-06
1.52894e-07
5.86204e-06
2.65237e-07
6.06688e-06
3.65842e-07
6.30787e-06
4.42012e-07
6.58411e-06
4.82204e-07
6.88969e-06
4.81531e-07
7.21287e-06
4.37062e-07
7.53931e-06
3.43923e-07
7.83685e-06
2.14502e-07
8.06996e-06
6.06478e-08
8.2199e-06
-1.16783e-07
8.2858e-06
-2.84726e-07
8.24904e-06
-4.12447e-07
8.09564e-06
-4.80019e-07
7.84528e-06
-4.98971e-07
7.54174e-06
-4.85564e-07
7.22269e-06
-4.29309e-07
6.91019e-06
-3.23677e-07
6.61466e-06
-1.84458e-07
6.34275e-06
-3.15942e-08
6.10345e-06
1.14216e-07
5.90172e-06
2.40108e-07
5.73733e-06
3.36398e-07
5.60782e-06
3.95269e-07
5.50612e-06
4.16494e-07
5.42071e-06
3.97848e-07
5.34868e-06
3.13096e-07
5.27843e-06
1.8861e-07
5.198e-06
5.69624e-08
5.10086e-06
-5.70747e-08
4.98692e-06
-1.42016e-07
4.86332e-06
-1.9508e-07
4.73928e-06
-2.11907e-07
4.626e-06
-1.9102e-07
4.53637e-06
-1.37347e-07
4.48243e-06
-6.18405e-08
4.46837e-06
2.77468e-08
4.4955e-06
1.22429e-07
4.56434e-06
2.11979e-07
4.66986e-06
2.89752e-07
4.80716e-06
3.48743e-07
4.97262e-06
3.8353e-07
5.1638e-06
3.90363e-07
5.37876e-06
3.68107e-07
3.24535e-07
8.677e-06
-4.83717e-07
8.64333e-06
-5.27394e-07
8.60685e-06
-5.61507e-07
8.57575e-06
-5.84637e-07
8.55577e-06
-6.00728e-07
8.55211e-06
-6.16326e-07
8.57045e-06
-6.38695e-07
8.6116e-06
-6.77531e-07
8.67279e-06
-7.43089e-07
8.74843e-06
-8.3973e-07
8.83275e-06
-9.73763e-07
8.92116e-06
-1.14982e-06
9.00868e-06
-1.36233e-06
9.0842e-06
-1.59749e-06
9.13898e-06
-1.8326e-06
9.16263e-06
-1.9983e-06
9.13593e-06
-2.04412e-06
9.03925e-06
-1.98266e-06
8.84013e-06
-1.76956e-06
8.53287e-06
-1.4281e-06
8.12956e-06
-1.01283e-06
7.6554e-06
-5.92026e-07
7.14622e-06
-2.16151e-07
6.64003e-06
8.07053e-08
6.16955e-06
2.837e-07
5.75926e-06
4.00827e-07
5.42395e-06
4.45337e-07
5.1666e-06
4.31917e-07
4.97997e-06
3.76734e-07
4.85471e-06
2.91092e-07
4.78352e-06
1.85083e-07
4.76336e-06
6.11091e-08
4.79087e-06
-7.46763e-08
4.85455e-06
-1.94045e-07
4.9374e-06
-2.73556e-07
5.02321e-06
-3.06705e-07
5.1171e-06
-3.03676e-07
5.22608e-06
-2.64378e-07
5.35381e-06
-1.95619e-07
5.50177e-06
-1.08039e-07
5.66698e-06
-1.23221e-08
5.84052e-06
9.16942e-08
6.02503e-06
1.81336e-07
6.21803e-06
2.49011e-07
6.41515e-06
2.85087e-07
6.6091e-06
2.8758e-07
6.78295e-06
2.63212e-07
6.91415e-06
2.12717e-07
6.9787e-06
1.49958e-07
6.95443e-06
8.49116e-08
6.82069e-06
1.69649e-08
6.59778e-06
-6.1821e-08
6.34513e-06
-1.59796e-07
6.10954e-06
-2.44431e-07
5.90542e-06
-2.94852e-07
5.72642e-06
-3.06565e-07
5.5687e-06
-2.7158e-07
5.42522e-06
-1.80198e-07
5.29005e-06
-4.92932e-08
5.16354e-06
9.49136e-08
5.05418e-06
2.23578e-07
4.97027e-06
3.24015e-07
4.91611e-06
3.9056e-07
4.88896e-06
4.22425e-07
4.88208e-06
4.23366e-07
4.89639e-06
3.83543e-07
4.92416e-06
2.85325e-07
4.95184e-06
1.60931e-07
4.96409e-06
4.47164e-08
4.95265e-06
-4.56394e-08
4.91662e-06
-1.05983e-07
4.85858e-06
-1.37041e-07
4.77968e-06
-1.33008e-07
4.69083e-06
-1.02173e-07
4.60893e-06
-5.54459e-08
4.54585e-06
1.24194e-09
4.51482e-06
5.87731e-08
4.52238e-06
1.14876e-07
4.56921e-06
1.65143e-07
4.65454e-06
2.04428e-07
4.77472e-06
2.28559e-07
4.92171e-06
2.36537e-07
5.08376e-06
2.28312e-07
5.24749e-06
2.04378e-07
1.67238e-07
8.62086e-06
-4.55539e-07
8.58548e-06
-4.92014e-07
8.54699e-06
-5.2302e-07
8.50987e-06
-5.47511e-07
8.47691e-06
-5.6777e-07
8.44942e-06
-5.88837e-07
8.42836e-06
-6.17635e-07
8.41374e-06
-6.62911e-07
8.40356e-06
-7.32907e-07
8.39593e-06
-8.32099e-07
8.38384e-06
-9.61674e-07
8.35704e-06
-1.12302e-06
8.31909e-06
-1.32438e-06
8.24492e-06
-1.52332e-06
8.12737e-06
-1.71504e-06
7.96848e-06
-1.83941e-06
7.77276e-06
-1.8484e-06
7.52975e-06
-1.73965e-06
7.22829e-06
-1.4681e-06
6.86255e-06
-1.06236e-06
6.43704e-06
-5.87316e-07
5.98515e-06
-1.40137e-07
5.52816e-06
2.40844e-07
5.11818e-06
4.90682e-07
4.7811e-06
6.20776e-07
4.51798e-06
6.6395e-07
4.32159e-06
6.41727e-07
4.18736e-06
5.66143e-07
4.10527e-06
4.58829e-07
4.06978e-06
3.26586e-07
4.07285e-06
1.82013e-07
4.09464e-06
3.93169e-08
4.12437e-06
-1.04411e-07
4.14091e-06
-2.1058e-07
4.14339e-06
-2.7604e-07
4.13975e-06
-3.03062e-07
4.14023e-06
-3.04158e-07
4.15386e-06
-2.78004e-07
4.18645e-06
-2.28208e-07
4.24282e-06
-1.64413e-07
4.32288e-06
-9.23781e-08
4.42519e-06
-1.06225e-08
4.53388e-06
7.26461e-08
4.62799e-06
1.54902e-07
4.69117e-06
2.21904e-07
4.71201e-06
2.66743e-07
4.68536e-06
2.89861e-07
4.61196e-06
2.86118e-07
4.51016e-06
2.51758e-07
4.4038e-06
1.91273e-07
4.31173e-06
1.09041e-07
4.25811e-06
-8.20512e-09
4.23576e-06
-1.3745e-07
4.23274e-06
-2.41409e-07
4.23655e-06
-2.98658e-07
4.23889e-06
-3.08905e-07
4.23323e-06
-2.65925e-07
4.20811e-06
-1.55076e-07
4.16343e-06
-4.60659e-09
4.11545e-06
1.42888e-07
4.07914e-06
2.59884e-07
4.06265e-06
3.40513e-07
4.06899e-06
3.84219e-07
4.09929e-06
3.92123e-07
4.15634e-06
3.6632e-07
4.24154e-06
2.98337e-07
4.33224e-06
1.94627e-07
4.40759e-06
8.55824e-08
4.45801e-06
-5.70987e-09
4.48177e-06
-6.93911e-08
4.4802e-06
-1.04422e-07
4.45731e-06
-1.14143e-07
4.42094e-06
-9.6636e-08
4.37776e-06
-5.89965e-08
4.33314e-06
-1.083e-08
4.29669e-06
3.76958e-08
4.27644e-06
7.9026e-08
4.27779e-06
1.13524e-07
4.30179e-06
1.41144e-07
4.34556e-06
1.60657e-07
4.40311e-06
1.71011e-07
4.46576e-06
1.73883e-07
4.52445e-06
1.69625e-07
4.57339e-06
1.55439e-07
1.31368e-07
8.31441e-06
-4.08446e-07
8.25896e-06
-4.36566e-07
8.19624e-06
-4.60297e-07
8.12762e-06
-4.78889e-07
8.05355e-06
-4.93702e-07
7.97336e-06
-5.0864e-07
7.88598e-06
-5.30257e-07
7.78925e-06
-5.66183e-07
7.67709e-06
-6.20747e-07
7.53969e-06
-6.94703e-07
7.36445e-06
-7.86431e-07
7.13232e-06
-8.90886e-07
6.81034e-06
-1.0024e-06
6.37817e-06
-1.09115e-06
5.86909e-06
-1.20597e-06
5.36538e-06
-1.3357e-06
4.93105e-06
-1.41407e-06
4.56041e-06
-1.36901e-06
4.23346e-06
-1.14115e-06
3.92014e-06
-7.49039e-07
3.61556e-06
-2.82743e-07
3.3547e-06
1.20729e-07
3.17072e-06
4.24818e-07
3.05048e-06
6.10928e-07
2.98396e-06
6.87288e-07
2.95745e-06
6.90469e-07
2.96155e-06
6.37623e-07
2.9846e-06
5.43095e-07
3.0072e-06
4.36224e-07
3.00855e-06
3.25237e-07
2.97735e-06
2.13213e-07
2.91636e-06
1.00304e-07
2.81948e-06
-7.53233e-09
2.71145e-06
-1.02549e-07
2.61428e-06
-1.78866e-07
2.53697e-06
-2.25757e-07
2.47662e-06
-2.43804e-07
2.43392e-06
-2.35301e-07
2.41026e-06
-2.04554e-07
2.40335e-06
-1.57503e-07
2.40777e-06
-9.67949e-08
2.41981e-06
-2.26618e-08
2.44273e-06
4.97256e-08
2.47104e-06
1.26587e-07
2.50023e-06
1.92717e-07
2.52719e-06
2.39785e-07
2.55439e-06
2.62662e-07
2.58111e-06
2.59391e-07
2.60917e-06
2.23706e-07
2.64615e-06
1.54291e-07
2.69719e-06
5.7999e-08
2.74029e-06
-5.13088e-08
2.76725e-06
-1.64404e-07
2.78027e-06
-2.54438e-07
2.78709e-06
-3.05473e-07
2.78968e-06
-3.11501e-07
2.78575e-06
-2.61992e-07
2.77941e-06
-1.48738e-07
2.78283e-06
-8.02692e-09
2.80354e-06
1.2218e-07
2.83951e-06
2.23921e-07
2.88976e-06
2.90259e-07
2.95269e-06
3.21285e-07
3.02655e-06
3.18268e-07
3.11076e-06
2.82104e-07
3.19281e-06
2.16289e-07
3.25429e-06
1.33145e-07
3.28894e-06
5.0933e-08
3.29812e-06
-1.48825e-08
3.29197e-06
-6.32488e-08
3.27773e-06
-9.01806e-08
3.25894e-06
-9.53521e-08
3.24121e-06
-7.89052e-08
3.22754e-06
-4.53231e-08
3.22069e-06
-3.98506e-09
3.22028e-06
3.81109e-08
3.22363e-06
7.56723e-08
3.23108e-06
1.06078e-07
3.24389e-06
1.28327e-07
3.26188e-06
1.42665e-07
3.28446e-06
1.48438e-07
3.31215e-06
1.46189e-07
3.34496e-06
1.36813e-07
3.38114e-06
1.19265e-07
9.47305e-08
7.40429e-06
-3.1432e-07
7.2984e-06
-3.30669e-07
7.18034e-06
-3.42245e-07
7.04911e-06
-3.47652e-07
6.90127e-06
-3.45861e-07
6.73225e-06
-3.39628e-07
6.53849e-06
-3.36497e-07
6.31232e-06
-3.40012e-07
6.03809e-06
-3.46511e-07
5.69335e-06
-3.49968e-07
5.24094e-06
-3.34016e-07
4.65465e-06
-3.04601e-07
3.94601e-06
-2.93754e-07
3.21857e-06
-3.6372e-07
2.61518e-06
-6.02577e-07
2.15289e-06
-8.73406e-07
1.76703e-06
-1.02822e-06
1.43295e-06
-1.03493e-06
1.15885e-06
-8.6705e-07
9.61868e-07
-5.52052e-07
8.46004e-07
-1.6688e-07
8.38709e-07
1.28024e-07
9.0478e-07
3.58747e-07
1.01243e-06
5.03277e-07
1.12809e-06
5.71633e-07
1.2363e-06
5.82259e-07
1.32841e-06
5.45509e-07
1.39297e-06
4.7854e-07
1.43225e-06
3.96943e-07
1.44982e-06
3.07669e-07
1.45018e-06
2.12847e-07
1.43405e-06
1.16433e-07
1.40137e-06
2.51523e-08
1.35059e-06
-5.17762e-08
1.2833e-06
-1.11574e-07
1.20792e-06
-1.50371e-07
1.1321e-06