/*--------------------------------*- C++ -*----------------------------------*\
| =========                 |                                                 |
| \\      /  F ield         | OpenFOAM: The Open Source CFD Toolbox           |
|  \\    /   O peration     | Version:  2206                                  |
|   \\  /    A nd           | Website:  www.openfoam.com                      |
|    \\/     M anipulation  |                                                 |
\*---------------------------------------------------------------------------*/
FoamFile
{
    version     2.0;
    format      ascii;
    arch        "LSB;label=32;scalar=64";
    class       surfaceScalarField;
    location    "18.9";
    object      phi;
}
// * * * * * * * * * * * * * * * * * * * * * * * * * * * * * * * * * * * * * //

dimensions      [0 3 -1 0 0 0 0];

oriented        oriented;

internalField   nonuniform List<scalar> 
5893
(
-2.55537e-06
3.78852e-07
-2.85763e-06
3.02261e-07
-3.0143e-06
1.56666e-07
-2.99438e-06
-1.99234e-08
-2.8299e-06
-1.64472e-07
-2.53686e-06
-2.93046e-07
-2.16229e-06
-3.7457e-07
-1.763e-06
-3.99291e-07
-1.38647e-06
-3.76525e-07
-1.0693e-06
-3.17175e-07
-8.35768e-07
-2.3353e-07
-7.01323e-07
-1.34446e-07
-6.72293e-07
-2.90295e-08
-7.15744e-07
4.34504e-08
-8.28012e-07
1.12269e-07
-9.66923e-07
1.38911e-07
-1.08476e-06
1.17835e-07
-1.13116e-06
4.6401e-08
-1.09647e-06
-3.46896e-08
-9.80379e-07
-1.1609e-07
-7.82521e-07
-1.97858e-07
-5.11648e-07
-2.70873e-07
-1.83805e-07
-3.27843e-07
1.69802e-07
-3.53606e-07
5.22697e-07
-3.52895e-07
8.62593e-07
-3.39897e-07
1.18203e-06
-3.19432e-07
1.4707e-06
-2.88674e-07
1.72002e-06
-2.49318e-07
1.92516e-06
-2.05144e-07
2.08495e-06
-1.59788e-07
2.20156e-06
-1.16611e-07
2.27994e-06
-7.83785e-08
2.32707e-06
-4.7136e-08
2.35229e-06
-2.52132e-08
2.36615e-06
-1.38582e-08
2.37628e-06
-1.013e-08
2.38907e-06
-1.27986e-08
2.40986e-06
-2.07831e-08
2.4446e-06
-3.47431e-08
2.5007e-06
-5.60981e-08
2.57992e-06
-7.92247e-08
2.68128e-06
-1.01358e-07
2.8023e-06
-1.21023e-07
2.93975e-06
-1.37443e-07
3.09012e-06
-1.50372e-07
3.25012e-06
-1.59998e-07
3.41707e-06
-1.66954e-07
3.58916e-06
-1.72093e-07
3.76603e-06
-1.76869e-07
3.94886e-06
-1.82825e-07
4.14396e-06
-1.95101e-07
4.36428e-06
-2.20319e-07
-2.6917e-07
4.63345e-06
-1.65647e-06
6.21437e-07
-1.80294e-06
4.48734e-07
-1.788e-06
1.4173e-07
-1.6354e-06
-1.72523e-07
-1.34233e-06
-4.5754e-07
-9.72553e-07
-6.62827e-07
-5.73353e-07
-7.7377e-07
-1.71583e-07
-8.01061e-07
2.12768e-07
-7.60876e-07
5.59046e-07
-6.63452e-07
8.4766e-07
-5.22145e-07
1.06617e-06
-3.52953e-07
1.21761e-06
-1.80477e-07
1.30135e-06
-4.02814e-08
1.35882e-06
5.47937e-08
1.40541e-06
9.23245e-08
1.46036e-06
6.28795e-08
1.5333e-06
-2.65367e-08
1.65008e-06
-1.51469e-07
1.82669e-06
-2.92703e-07
2.06163e-06
-4.32797e-07
2.34431e-06
-5.53552e-07
2.65748e-06
-6.41013e-07
2.98714e-06
-6.83268e-07
3.32081e-06
-6.86564e-07
3.64719e-06
-6.66279e-07
3.95545e-06
-6.27688e-07
4.24034e-06
-5.73567e-07
4.49884e-06
-5.07817e-07
4.72833e-06
-4.34636e-07
4.92724e-06
-3.58698e-07
5.09513e-06
-2.84495e-07
5.23292e-06
-2.16171e-07
5.34335e-06
-1.57568e-07
5.4311e-06
-1.1296e-07
5.50197e-06
-8.47315e-08
5.56186e-06
-7.00192e-08
5.61606e-06
-6.69938e-08
5.67012e-06
-7.48523e-08
5.72962e-06
-9.424e-08
5.79927e-06
-1.25745e-07
5.88235e-06
-1.62302e-07
5.98042e-06
-1.99436e-07
6.09364e-06
-2.34241e-07
6.22109e-06
-2.64891e-07
6.36118e-06
-2.90459e-07
6.51207e-06
-3.10888e-07
6.67202e-06
-3.26912e-07
6.8397e-06
-3.39764e-07
7.01398e-06
-3.51152e-07
7.19435e-06
-3.63196e-07
7.37843e-06
-3.79181e-07
7.56042e-06
-4.02314e-07
-4.32841e-07
7.7241e-06
1.40475e-06
5.05731e-07
1.57277e-06
2.80713e-07
1.78736e-06
-7.28582e-08
2.07951e-06
-4.64676e-07
2.41707e-06
-7.95095e-07
2.76084e-06
-1.0066e-06
3.0791e-06
-1.09203e-06
3.36578e-06
-1.08774e-06
3.6261e-06
-1.0212e-06
3.85905e-06
-8.96403e-07
4.07018e-06
-7.33274e-07
4.26757e-06
-5.50344e-07
4.45719e-06
-3.70098e-07
4.64003e-06
-2.23119e-07
4.82119e-06
-1.26366e-07
5.00226e-06
-8.87514e-08
5.18044e-06
-1.15294e-07
5.35084e-06
-1.96937e-07
5.51554e-06
-3.16176e-07
5.68136e-06
-4.58522e-07
5.8511e-06
-6.02539e-07
6.02621e-06
-7.28653e-07
6.20631e-06
-8.21114e-07
6.38586e-06
-8.62819e-07
6.56308e-06
-8.63785e-07
6.74122e-06
-8.44417e-07
6.91569e-06
-8.02156e-07
7.08188e-06
-7.39764e-07
7.23849e-06
-6.64422e-07
7.38533e-06
-5.8148e-07
7.52255e-06
-4.95917e-07
7.65083e-06
-4.12773e-07
7.77146e-06
-3.36797e-07
7.88533e-06
-2.71446e-07
7.99196e-06
-2.19584e-07
8.08984e-06
-1.82617e-07
8.17997e-06
-1.60149e-07
8.26472e-06
-1.51743e-07
8.34689e-06
-1.57024e-07
8.42765e-06
-1.75e-07
8.50547e-06
-2.03557e-07
8.58158e-06
-2.38414e-07
8.65789e-06
-2.75745e-07
8.7363e-06
-3.12649e-07
8.81833e-06
-3.46925e-07
8.90494e-06
-3.77074e-07
8.99675e-06
-4.02694e-07
9.09407e-06
-4.24233e-07
9.1969e-06
-4.42589e-07
9.30477e-06
-4.59025e-07
9.41668e-06
-4.75105e-07
9.5301e-06
-4.92599e-07
9.64049e-06
-5.1271e-07
-5.33509e-07
9.74116e-06
5.37108e-06
2.26011e-07
5.69335e-06
-4.15571e-08
6.02139e-06
-4.00896e-07
6.31205e-06
-7.55338e-07
6.55365e-06
-1.0367e-06
6.75533e-06
-1.20827e-06
6.92611e-06
-1.26281e-06
7.08258e-06
-1.24421e-06
7.2302e-06
-1.16881e-06
7.37014e-06
-1.03635e-06
7.50802e-06
-8.71156e-07
7.65082e-06
-6.93141e-07
7.80217e-06
-5.21451e-07
7.96042e-06
-3.81368e-07
8.12307e-06
-2.89016e-07
8.28528e-06
-2.50962e-07
8.43848e-06
-2.68492e-07
8.57572e-06
-3.34177e-07
8.69591e-06
-4.36363e-07
8.80098e-06
-5.63596e-07
8.88751e-06
-6.89071e-07
8.95428e-06
-7.95419e-07
9.0077e-06
-8.74536e-07
9.05738e-06
-9.12496e-07
9.10542e-06
-9.11831e-07
9.15625e-06
-8.95246e-07
9.20917e-06
-8.55072e-07
9.26466e-06
-7.95252e-07
9.32318e-06
-7.22948e-07
9.38523e-06
-6.4353e-07
9.45108e-06
-5.61764e-07
9.52042e-06
-4.82113e-07
9.5926e-06
-4.08971e-07
9.66685e-06
-3.45701e-07
9.74213e-06
-2.94862e-07
9.81713e-06
-2.57622e-07
9.89116e-06
-2.34176e-07
9.96365e-06
-2.24229e-07
1.00338e-05
-2.27192e-07
1.01007e-05
-2.41855e-07
1.01631e-05
-2.66006e-07
1.02211e-05
-2.96417e-07
1.02754e-05
-3.29985e-07
1.0327e-05
-3.64238e-07
1.03771e-05
-3.9712e-07
1.04272e-05
-4.27152e-07
1.04785e-05
-4.53969e-07
1.05319e-05
-4.77636e-07
1.05879e-05
-4.98602e-07
1.06466e-05
-5.17733e-07
1.07076e-05
-5.36116e-07
1.077e-05
-5.5492e-07
1.08316e-05
-5.74307e-07
-5.92158e-07
1.08902e-05
9.53534e-06
6.45586e-08
9.69516e-06
-2.01377e-07
9.80706e-06
-5.128e-07
9.85526e-06
-8.03535e-07
9.85107e-06
-1.03251e-06
9.8203e-06
-1.1775e-06
9.78353e-06
-1.22605e-06
9.75226e-06
-1.21294e-06
9.73203e-06
-1.14858e-06
9.73354e-06
-1.03786e-06
9.76261e-06
-9.00228e-07
9.82256e-06
-7.53092e-07
9.91468e-06
-6.13566e-07
1.00322e-05
-4.98881e-07
1.01637e-05
-4.20574e-07
1.02975e-05
-3.84764e-07
1.04221e-05
-3.93046e-07
1.05284e-05
-4.4052e-07
1.06107e-05
-5.18637e-07
1.06627e-05
-6.15554e-07
1.06812e-05
-7.07633e-07
1.06713e-05
-7.85525e-07
1.06419e-05
-8.45113e-07
1.06063e-05
-8.76885e-07
1.05727e-05
-8.78228e-07
1.05414e-05
-8.63968e-07
1.05154e-05
-8.29072e-07
1.04981e-05
-7.77902e-07
1.04909e-05
-7.15756e-07
1.04947e-05
-6.47352e-07
1.05097e-05
-5.76789e-07
1.05357e-05
-5.08091e-07
1.05714e-05
-4.44623e-07
1.06147e-05
-3.89083e-07
1.0664e-05
-3.44072e-07
1.0717e-05
-3.10624e-07
1.07717e-05
-2.88881e-07
1.08263e-05
-2.7885e-07
1.08791e-05
-2.80053e-07
1.09285e-05
-2.91216e-07
1.09728e-05
-3.10322e-07
1.10114e-05
-3.34992e-07
1.10445e-05
-3.6304e-07
1.10729e-05
-3.92683e-07
1.10981e-05
-4.22337e-07
1.11216e-05
-4.50613e-07
1.11446e-05
-4.76949e-07
1.11681e-05
-5.01165e-07
1.11929e-05
-5.23447e-07
1.12196e-05
-5.44377e-07
1.12482e-05
-5.64771e-07
1.12786e-05
-5.85329e-07
1.131e-05
-6.05657e-07
-6.24625e-07
1.13425e-05
1.16138e-05
-4.80548e-08
1.16796e-05
-2.6722e-07
1.16769e-05
-5.10078e-07
1.1609e-05
-7.35666e-07
1.14931e-05
-9.16593e-07
1.13529e-05
-1.03728e-06
1.12187e-05
-1.09188e-06
1.10978e-05
-1.092e-06
1.09962e-05
-1.04698e-06
1.09254e-05
-9.67024e-07
1.08908e-05
-8.65641e-07
1.08926e-05
-7.54936e-07
1.09282e-05
-6.49123e-07
1.09916e-05
-5.6233e-07
1.1073e-05
-5.01906e-07
1.1161e-05
-4.72832e-07
1.12445e-05
-4.765e-07
1.13119e-05
-5.07901e-07
1.13538e-05
-5.60586e-07
1.13638e-05
-6.2557e-07
1.13457e-05
-6.89517e-07
1.13062e-05
-7.46058e-07
1.1251e-05
-7.89853e-07
1.11893e-05
-8.15207e-07
1.11303e-05
-8.19181e-07
1.10723e-05
-8.05993e-07
1.10209e-05
-7.77652e-07
1.09794e-05
-7.36461e-07
1.09496e-05
-6.85956e-07
1.09324e-05
-6.30094e-07
1.09277e-05
-5.72141e-07
1.09349e-05
-5.15257e-07
1.09527e-05
-4.62403e-07
1.09792e-05
-4.15585e-07
1.10124e-05
-3.77259e-07
1.10509e-05
-3.49168e-07
1.10922e-05
-3.30197e-07
1.11334e-05
-3.20041e-07
1.11724e-05
-3.19099e-07
1.12077e-05
-3.2644e-07
1.12382e-05
-3.40883e-07
1.12641e-05
-3.60843e-07
1.12856e-05
-3.84563e-07
1.13034e-05
-4.10451e-07
1.13182e-05
-4.37149e-07
1.13311e-05
-4.63491e-07
1.13429e-05
-4.88806e-07
1.13547e-05
-5.12952e-07
1.13674e-05
-5.36092e-07
1.13816e-05
-5.58582e-07
1.13975e-05
-5.80723e-07
1.14147e-05
-6.02548e-07
1.14337e-05
-6.24635e-07
-6.47838e-07
1.14569e-05
1.22826e-05
-1.02637e-07
1.22913e-05
-2.7584e-07
1.2243e-05
-4.61822e-07
1.21485e-05
-6.41193e-07
1.20223e-05
-7.90347e-07
1.18792e-05
-8.94159e-07
1.17362e-05
-9.48939e-07
1.16032e-05
-9.58984e-07
1.14893e-05
-9.33079e-07
1.14029e-05
-8.80588e-07
1.13484e-05
-8.11164e-07
1.13266e-05
-7.3311e-07
1.13331e-05
-6.55697e-07
1.13634e-05
-5.92616e-07
1.14116e-05
-5.50061e-07
1.14653e-05
-5.2656e-07
1.15117e-05
-5.2289e-07
1.15439e-05
-5.4007e-07
1.15574e-05
-5.74128e-07
1.15493e-05
-6.17435e-07
1.15235e-05
-6.63746e-07
1.14843e-05
-7.06865e-07
1.14339e-05
-7.39477e-07
1.13757e-05
-7.56941e-07
1.13155e-05
-7.58978e-07
1.12576e-05
-7.48084e-07
1.12054e-05
-7.25525e-07
1.11615e-05
-6.92543e-07
1.11275e-05
-6.51928e-07
1.11041e-05
-6.06755e-07
1.10917e-05
-5.59696e-07
1.10895e-05
-5.13036e-07
1.10965e-05
-4.69395e-07
1.11119e-05
-4.31015e-07
1.11337e-05
-3.99048e-07
1.11587e-05
-3.7418e-07
1.1186e-05
-3.57509e-07
1.12151e-05
-3.49109e-07
1.12439e-05
-3.47919e-07
1.12711e-05
-3.5361e-07
1.12957e-05
-3.65495e-07
1.13172e-05
-3.82405e-07
1.13356e-05
-4.02909e-07
1.13507e-05
-4.25603e-07
1.13629e-05
-4.49347e-07
1.13728e-05
-4.73362e-07
1.13813e-05
-4.97272e-07
1.13894e-05
-5.21057e-07
1.13981e-05
-5.44783e-07
1.14081e-05
-5.68563e-07
1.142e-05
-5.92641e-07
1.14346e-05
-6.17178e-07
1.14525e-05
-6.4251e-07
-6.69322e-07
1.1474e-05
1.23729e-05
-1.42508e-07
1.23741e-05
-2.77035e-07
1.23357e-05
-4.23414e-07
1.22581e-05
-5.63571e-07
1.21493e-05
-6.81526e-07
1.20234e-05
-7.68286e-07
1.18945e-05
-8.20057e-07
1.17739e-05
-8.3835e-07
1.16695e-05
-8.28741e-07
1.15866e-05
-7.97671e-07
1.15276e-05
-7.52177e-07
1.14942e-05
-6.99616e-07
1.14847e-05
-6.4622e-07
1.14921e-05
-6.00049e-07
1.151e-05
-5.67931e-07
1.15344e-05
-5.51009e-07
1.15603e-05
-5.48776e-07
1.15793e-05
-5.59069e-07
1.1585e-05
-5.79779e-07
1.15768e-05
-6.09297e-07
1.15547e-05
-6.41609e-07
1.15186e-05
-6.70776e-07
1.14722e-05
-6.93124e-07
1.14207e-05
-7.05348e-07
1.13679e-05
-7.06239e-07
1.13166e-05
-6.9677e-07
1.12692e-05
-6.78114e-07
1.12281e-05
-6.51462e-07
1.11948e-05
-6.18651e-07
1.11701e-05
-5.82045e-07
1.11543e-05
-5.43831e-07
1.11469e-05
-5.05726e-07
1.11475e-05
-4.69916e-07
1.11547e-05
-4.38199e-07
1.11671e-05
-4.1153e-07
1.1184e-05
-3.9103e-07
1.12037e-05
-3.77266e-07
1.12247e-05
-3.70067e-07
1.12459e-05
-3.69162e-07
1.12665e-05
-3.7416e-07
1.12855e-05
-3.84494e-07
1.13024e-05
-3.99326e-07
1.13171e-05
-4.17624e-07
1.13299e-05
-4.38336e-07
1.1341e-05
-4.6051e-07
1.13511e-05
-4.83456e-07
1.13607e-05
-5.0684e-07
1.13702e-05
-5.3053e-07
1.13799e-05
-5.54548e-07
1.13904e-05
-5.79037e-07
1.1402e-05
-6.04267e-07
1.14154e-05
-6.30565e-07
1.14313e-05
-6.58405e-07
-6.88443e-07
1.14504e-05
1.22823e-05
-1.66741e-07
1.22812e-05
-2.75942e-07
1.22482e-05
-3.90373e-07
1.21855e-05
-5.0092e-07
1.20998e-05
-5.95753e-07
1.19998e-05
-6.6831e-07
1.18956e-05
-7.15906e-07
1.17962e-05
-7.38915e-07
1.1708e-05
-7.40489e-07
1.16353e-05
-7.24983e-07
1.15806e-05
-6.97542e-07
1.15448e-05
-6.63788e-07
1.1527e-05
-6.28445e-07
1.15232e-05
-5.96256e-07
1.15283e-05
-5.72958e-07
1.15384e-05
-5.61174e-07
1.15486e-05
-5.58908e-07
1.15551e-05
-5.65649e-07
1.15551e-05
-5.79727e-07
1.1545e-05
-5.99177e-07
1.15242e-05
-6.20844e-07
1.1494e-05
-6.40575e-07
1.14561e-05
-6.55216e-07
1.14134e-05
-6.62687e-07
1.13692e-05
-6.62016e-07
1.13259e-05
-6.53437e-07
1.12855e-05
-6.37722e-07
1.12499e-05
-6.15824e-07
1.12202e-05
-5.8899e-07
1.11972e-05
-5.59032e-07
1.11811e-05
-5.27754e-07
1.11718e-05
-4.96427e-07
1.11688e-05
-4.66948e-07
1.11715e-05
-4.40907e-07
1.11787e-05
-4.18699e-07
1.11893e-05
-4.01666e-07
1.12028e-05
-3.90734e-07
1.12179e-05
-3.85193e-07
1.12338e-05
-3.85013e-07
1.12496e-05
-3.89978e-07
1.12647e-05
-3.99628e-07
1.12787e-05
-4.13314e-07
1.12914e-05
-4.30243e-07
1.13026e-05
-4.49608e-07
1.13128e-05
-4.70687e-07
1.13223e-05
-4.92913e-07
1.13314e-05
-5.15933e-07
1.13404e-05
-5.39584e-07
1.13497e-05
-5.63873e-07
1.13596e-05
-5.88956e-07
1.13705e-05
-6.15154e-07
1.13829e-05
-6.42908e-07
1.13972e-05
-6.7277e-07
-7.05422e-07
1.14142e-05
1.2162e-05
-1.81197e-07
1.21574e-05
-2.71336e-07
1.21307e-05
-3.63613e-07
1.2082e-05
-4.52262e-07
1.20161e-05
-5.29806e-07
1.19392e-05
-5.91415e-07
1.18582e-05
-6.34908e-07
1.17794e-05
-6.60145e-07
1.17078e-05
-6.68895e-07
1.1647e-05
-6.64184e-07
1.15993e-05
-6.49803e-07
1.15651e-05
-6.29618e-07
1.15438e-05
-6.07092e-07
1.15335e-05
-5.85993e-07
1.1531e-05
-5.70456e-07
1.15325e-05
-5.6267e-07
1.15346e-05
-5.61055e-07
1.15345e-05
-5.65539e-07
1.15298e-05
-5.75042e-07
1.15186e-05
-5.87973e-07
1.15e-05
-6.02214e-07
1.14745e-05
-6.15032e-07
1.14434e-05
-6.24165e-07
1.14088e-05
-6.28111e-07
1.13729e-05
-6.26037e-07
1.13373e-05
-6.17854e-07
1.13036e-05
-6.04059e-07
1.12732e-05
-5.85427e-07
1.12471e-05
-5.62875e-07
1.12259e-05
-5.3783e-07
1.121e-05
-5.11863e-07
1.11994e-05
-4.85801e-07
1.11937e-05
-4.61224e-07
1.11926e-05
-4.39822e-07
1.11954e-05
-4.21506e-07
1.1201e-05
-4.07274e-07
1.12091e-05
-3.98871e-07
1.12191e-05
-3.95169e-07
1.12301e-05
-3.96005e-07
1.12415e-05
-4.01408e-07
1.12529e-05
-4.11023e-07
1.1264e-05
-4.24347e-07
1.12744e-05
-4.40735e-07
1.12843e-05
-4.5951e-07
1.12937e-05
-4.8006e-07
1.13027e-05
-5.01892e-07
1.13114e-05
-5.24675e-07
1.13201e-05
-5.48254e-07
1.13289e-05
-5.72649e-07
1.1338e-05
-5.98053e-07
1.13477e-05
-6.24833e-07
1.13583e-05
-6.53503e-07
1.13702e-05
-6.84707e-07
-7.19204e-07
1.1384e-05
1.20689e-05
-1.90324e-07
1.20635e-05
-2.65927e-07
1.2042e-05
-3.42073e-07
1.20045e-05
-4.14838e-07
1.19542e-05
-4.79417e-07
1.18951e-05
-5.3233e-07
1.1832e-05
-5.7183e-07
1.17695e-05
-5.97645e-07
1.17114e-05
-6.10837e-07
1.16607e-05
-6.13462e-07
1.1619e-05
-6.08089e-07
1.15868e-05
-5.97414e-07
1.1564e-05
-5.84294e-07
1.15499e-05
-5.71927e-07
1.15425e-05
-5.63056e-07
1.15384e-05
-5.58553e-07
1.1535e-05
-5.57661e-07
1.15302e-05
-5.60729e-07
1.15224e-05
-5.67247e-07
1.15103e-05
-5.75905e-07
1.14933e-05
-5.85129e-07
1.14714e-05
-5.93123e-07
1.14455e-05
-5.98267e-07
1.14168e-05
-5.99419e-07
1.13867e-05
-5.95946e-07
1.13565e-05
-5.8773e-07
1.13276e-05
-5.75115e-07
1.13009e-05
-5.58714e-07
1.12772e-05
-5.39214e-07
1.12572e-05
-5.17824e-07
1.12412e-05
-4.95872e-07
1.12293e-05
-4.73848e-07
1.12212e-05
-4.53107e-07
1.12167e-05
-4.35398e-07
1.12157e-05
-4.20491e-07
1.12171e-05
-4.08663e-07
1.12205e-05
-4.02247e-07
1.12258e-05
-4.00499e-07
1.12324e-05
-4.02605e-07
1.12399e-05
-4.08845e-07
1.12478e-05
-4.18955e-07
1.1256e-05
-4.32514e-07
1.12642e-05
-4.48958e-07
1.12724e-05
-4.67696e-07
1.12805e-05
-4.88179e-07
1.12885e-05
-5.09947e-07
1.12965e-05
-5.32666e-07
1.13044e-05
-5.56164e-07
1.13123e-05
-5.80466e-07
1.132e-05
-6.05805e-07
1.13278e-05
-6.32619e-07
1.13358e-05
-6.61526e-07
1.13444e-05
-6.93296e-07
-7.28796e-07
1.1354e-05
1.19998e-05
-1.96695e-07
1.19948e-05
-2.60944e-07
1.19776e-05
-3.24872e-07
1.19484e-05
-3.85646e-07
1.19092e-05
-4.40194e-07
1.18629e-05
-4.86035e-07
1.18129e-05
-5.21832e-07
1.17626e-05
-5.47312e-07
1.17148e-05
-5.63094e-07
1.16719e-05
-5.70523e-07
1.16352e-05
-5.71404e-07
1.16056e-05
-5.67798e-07
1.15833e-05
-5.61958e-07
1.15674e-05
-5.56108e-07
1.15562e-05
-5.51857e-07
1.15475e-05
-5.49777e-07
1.15398e-05
-5.49975e-07
1.15318e-05
-5.52708e-07
1.1522e-05
-5.57519e-07
1.15096e-05
-5.63438e-07
1.14937e-05
-5.69315e-07
1.14745e-05
-5.73923e-07
1.14524e-05
-5.76131e-07
1.14281e-05
-5.75114e-07
1.14026e-05
-5.70421e-07
1.13768e-05
-5.61964e-07
1.13517e-05
-5.50002e-07
1.1328e-05
-5.3504e-07
1.13064e-05
-5.17617e-07
1.12875e-05
-4.98864e-07
1.12713e-05
-4.79743e-07
1.12581e-05
-4.60603e-07
1.1248e-05
-4.42979e-07
1.12407e-05
-4.28116e-07
1.12358e-05
-4.15634e-07
1.12334e-05
-4.06222e-07
1.12329e-05
-4.01777e-07
1.1234e-05
-4.01601e-07
1.12364e-05
-4.0499e-07
1.12399e-05
-4.12305e-07
1.12443e-05
-4.23385e-07
1.12495e-05
-4.37737e-07
1.12554e-05
-4.54798e-07
1.12617e-05
-4.74025e-07
1.12684e-05
-4.94877e-07
1.12753e-05
-5.16864e-07
1.12823e-05
-5.39619e-07
1.1289e-05
-5.62933e-07
1.12954e-05
-5.86834e-07
1.13012e-05
-6.11599e-07
1.13063e-05
-6.37758e-07
1.13109e-05
-6.66069e-07
1.1315e-05
-6.97468e-07
-7.32978e-07
1.13192e-05
1.19442e-05
-2.01761e-07
1.19401e-05
-2.56852e-07
1.19264e-05
-3.1112e-07
1.19034e-05
-3.62618e-07
1.18725e-05
-4.09321e-07
1.18358e-05
-4.4939e-07
1.17958e-05
-4.81833e-07
1.1755e-05
-5.06426e-07
1.17154e-05
-5.23532e-07
1.16789e-05
-5.34062e-07
1.16469e-05
-5.39324e-07
1.16199e-05
-5.40844e-07
1.15982e-05
-5.40239e-07
1.15811e-05
-5.39023e-07
1.15675e-05
-5.38298e-07
1.15563e-05
-5.38568e-07
1.15464e-05
-5.4004e-07
1.15366e-05
-5.42917e-07
1.15259e-05
-5.4686e-07
1.15136e-05
-5.51108e-07
1.14991e-05
-5.54797e-07
1.14822e-05
-5.57063e-07
1.14632e-05
-5.57124e-07
1.14425e-05
-5.54404e-07
1.14207e-05
-5.48596e-07
1.13984e-05
-5.3967e-07
1.13763e-05
-5.27858e-07
1.13548e-05
-5.13624e-07
1.13347e-05
-4.97478e-07
1.13162e-05
-4.80402e-07
1.12995e-05
-4.62997e-07
1.12848e-05
-4.45874e-07
1.12724e-05
-4.30581e-07
1.12616e-05
-4.17354e-07
1.12525e-05
-4.06497e-07
1.12459e-05
-3.99699e-07
1.12415e-05
-3.97318e-07
1.12382e-05
-3.98303e-07
1.12362e-05
-4.02996e-07
1.12357e-05
-4.11794e-07
1.12365e-05
-4.24205e-07
1.12385e-05
-4.3973e-07
1.12416e-05
-4.57868e-07
1.12456e-05
-4.78019e-07
1.12503e-05
-4.99587e-07
1.12554e-05
-5.22016e-07
1.12607e-05
-5.44852e-07
1.12655e-05
-5.67791e-07
1.12695e-05
-5.90848e-07
1.12723e-05
-6.14332e-07
1.12734e-05
-6.38882e-07
1.12728e-05
-6.65443e-07
1.12705e-05
-6.95184e-07
-7.29363e-07
1.12669e-05
1.18997e-05
-2.06344e-07
1.18967e-05
-2.53855e-07
1.1886e-05
-3.00384e-07
1.18679e-05
-3.44506e-07
1.18435e-05
-3.84932e-07
1.18143e-05
-4.20202e-07
1.1782e-05
-4.49545e-07
1.17485e-05
-4.72927e-07
1.17155e-05
-4.90519e-07
1.16843e-05
-5.02902e-07
1.16561e-05
-5.11086e-07
1.16314e-05
-5.16155e-07
1.16104e-05
-5.19245e-07
1.15928e-05
-5.214e-07
1.15779e-05
-5.23423e-07
1.15651e-05
-5.25778e-07
1.15537e-05
-5.28609e-07
1.15428e-05
-5.32003e-07
1.15316e-05
-5.35669e-07
1.15195e-05
-5.39015e-07
1.1506e-05
-5.41315e-07
1.14909e-05
-5.41937e-07
1.14741e-05
-5.40345e-07
1.14559e-05
-5.36155e-07
1.14365e-05
-5.29188e-07
1.14163e-05
-5.19481e-07
1.13957e-05
-5.0729e-07
1.13752e-05
-4.93081e-07
1.13551e-05
-4.77407e-07
1.13357e-05
-4.61015e-07
1.13172e-05
-4.445e-07
1.13e-05
-4.28681e-07
1.12839e-05
-4.14477e-07
1.12689e-05
-4.02352e-07
1.12559e-05
-3.93501e-07
1.12446e-05
-3.88417e-07
1.12343e-05
-3.8699e-07
1.12257e-05
-3.89667e-07
1.1219e-05
-3.96304e-07
1.12138e-05
-4.06625e-07
1.12101e-05
-4.2046e-07
1.12077e-05
-4.37403e-07
1.12068e-05
-4.56893e-07
1.1207e-05
-4.7825e-07
1.12082e-05
-5.0076e-07
1.12099e-05
-5.23737e-07
1.12115e-05
-5.46505e-07
1.12124e-05
-5.68637e-07
1.12116e-05
-5.90054e-07
1.12084e-05
-6.11124e-07
1.12021e-05
-6.32581e-07
1.11923e-05
-6.55619e-07
1.11788e-05
-6.81739e-07
-7.1252e-07
1.1162e-05
1.18646e-05
-2.10919e-07
1.18627e-05
-2.51945e-07
1.18544e-05
-2.92107e-07
1.18401e-05
-3.30208e-07
1.18206e-05
-3.65415e-07
1.17969e-05
-3.96513e-07
1.17702e-05
-4.22813e-07
1.1742e-05
-4.44738e-07
1.17137e-05
-4.62243e-07
1.16863e-05
-4.7547e-07
1.16607e-05
-4.8545e-07
1.16373e-05
-4.92825e-07
1.16165e-05
-4.98371e-07
1.15979e-05
-5.0283e-07
1.15814e-05
-5.06968e-07
1.1567e-05
-5.11317e-07
1.15541e-05
-5.15759e-07
1.15422e-05
-5.20065e-07
1.15304e-05
-5.23888e-07
1.15181e-05
-5.2673e-07
1.15048e-05
-5.2802e-07
1.14902e-05
-5.27279e-07
1.1474e-05
-5.2415e-07
1.14562e-05
-5.18417e-07
1.14371e-05
-5.10025e-07
1.14167e-05
-4.99095e-07
1.13953e-05
-4.85915e-07
1.13731e-05
-4.70913e-07
1.13504e-05
-4.54646e-07
1.13272e-05
-4.37874e-07
1.13042e-05
-4.21415e-07
1.12816e-05
-4.06111e-07
1.126e-05
-3.92871e-07
1.12398e-05
-3.82126e-07
1.12206e-05
-3.7434e-07
1.12023e-05
-3.70112e-07
1.1185e-05
-3.69722e-07
1.11688e-05
-3.73442e-07
1.11538e-05
-3.81272e-07
1.11401e-05
-3.92974e-07
1.11279e-05
-4.08254e-07
1.11171e-05
-4.26647e-07
1.11077e-05
-4.4748e-07
1.10994e-05
-4.69958e-07
1.10919e-05
-4.93211e-07
1.10845e-05
-5.16345e-07
1.10766e-05
-5.38555e-07
1.10669e-05
-5.5901e-07
1.10541e-05
-5.77228e-07
1.10369e-05
-5.93964e-07
1.10143e-05
-6.09916e-07
1.09853e-05
-6.26617e-07
1.09495e-05
-6.46006e-07
-6.70075e-07
1.09071e-05
1.18361e-05
-2.15043e-07
1.18344e-05
-2.50319e-07
1.18272e-05
-2.84899e-07
1.18148e-05
-3.17752e-07
1.17974e-05
-3.48087e-07
1.17763e-05
-3.75375e-07
1.17528e-05
-3.99305e-07
1.17275e-05
-4.19404e-07
1.1701e-05
-4.35768e-07
1.16742e-05
-4.487e-07
1.16477e-05
-4.58928e-07
1.16221e-05
-4.6723e-07
1.15981e-05
-4.74386e-07
1.15763e-05
-4.8106e-07
1.15569e-05
-4.87526e-07
1.15393e-05
-4.93677e-07
1.15229e-05
-4.99377e-07
1.15072e-05
-5.04401e-07
1.14916e-05
-5.0831e-07
1.14755e-05
-5.10552e-07
1.14581e-05
-5.10645e-07
1.14391e-05
-5.08269e-07
1.14182e-05
-5.03245e-07
1.13953e-05
-4.95508e-07
1.13704e-05
-4.8514e-07
1.13436e-05
-4.72358e-07
1.13152e-05
-4.57513e-07
1.12854e-05
-4.41093e-07
1.12545e-05
-4.23709e-07
1.12227e-05
-4.06073e-07
1.11902e-05
-3.88975e-07
1.11574e-05
-3.7325e-07
1.11242e-05
-3.5965e-07
1.10908e-05
-3.48738e-07
1.10575e-05
-3.4103e-07
1.10244e-05
-3.37012e-07
1.09916e-05
-3.36997e-07
1.09593e-05
-3.41157e-07
1.09276e-05
-3.49502e-07
1.08964e-05
-3.6182e-07
1.08659e-05
-3.77727e-07
1.08359e-05
-3.96693e-07
1.08065e-05
-4.17992e-07
1.07772e-05
-4.40671e-07
1.07476e-05
-4.63634e-07
1.07169e-05
-4.8569e-07
1.06842e-05
-5.05796e-07
1.06479e-05
-5.22714e-07
1.06063e-05
-5.3562e-07
1.05575e-05
-5.45183e-07
1.04998e-05
-5.52231e-07
1.04319e-05
-5.58681e-07
1.03529e-05
-5.67024e-07
-5.79755e-07
1.02626e-05
1.17753e-05
-2.15179e-07
1.177e-05
-2.44975e-07
1.17592e-05
-2.74127e-07
1.17433e-05
-3.01816e-07
1.1723e-05
-3.27854e-07
1.16986e-05
-3.50938e-07
1.16708e-05
-3.71507e-07
1.16405e-05
-3.89109e-07
1.16084e-05
-4.03701e-07
1.15754e-05
-4.15621e-07
1.15419e-05
-4.25422e-07
1.15084e-05
-4.33737e-07
1.14752e-05
-4.41193e-07
1.14424e-05
-4.48302e-07
1.14102e-05
-4.55307e-07
1.13786e-05
-4.62073e-07
1.13474e-05
-4.68232e-07
1.13163e-05
-4.73275e-07
1.12845e-05
-4.76515e-07
1.12513e-05
-4.77306e-07
1.12159e-05
-4.75278e-07
1.11779e-05
-4.70305e-07
1.11371e-05
-4.62397e-07
1.10933e-05
-4.51667e-07
1.10465e-05
-4.38357e-07
1.09969e-05
-4.22813e-07
1.09449e-05
-4.05474e-07
1.08907e-05
-3.86895e-07
1.08347e-05
-3.67722e-07
1.07773e-05
-3.48624e-07
1.07186e-05
-3.30328e-07
1.06589e-05
-3.13526e-07
1.05982e-05
-2.98958e-07
1.05368e-05
-2.87306e-07
1.04747e-05
-2.78993e-07
1.04121e-05
-2.74366e-07
1.03488e-05
-2.73674e-07
1.02846e-05
-2.77018e-07
1.02195e-05
-2.84355e-07
1.01531e-05
-2.9548e-07
1.00855e-05
-3.10062e-07
1.00163e-05
-3.27498e-07
9.9452e-06
-3.46924e-07
9.87186e-06
-3.67327e-07
9.79575e-06
-3.87526e-07
9.71623e-06
-4.06166e-07
9.63216e-06
-4.21724e-07
9.54209e-06
-4.32645e-07
9.44439e-06
-4.37923e-07
9.33682e-06
-4.37618e-07
9.21738e-06
-4.32787e-07
9.08433e-06
-4.25628e-07
8.93641e-06
-4.19106e-07
-4.16133e-07
8.77279e-06
1.15108e-05
-2.02017e-07
1.14909e-05
-2.25141e-07
1.14645e-05
-2.47674e-07
1.14316e-05
-2.68968e-07
1.13928e-05
-2.89005e-07
1.13484e-05
-3.06519e-07
1.12989e-05
-3.22017e-07
1.12449e-05
-3.35158e-07
1.11871e-05
-3.45922e-07
1.11261e-05
-3.54605e-07
1.10624e-05
-3.61724e-07
1.09965e-05
-3.67854e-07
1.09288e-05
-3.73471e-07
1.08595e-05
-3.78988e-07
1.07888e-05
-3.84599e-07
1.07168e-05
-3.90047e-07
1.06433e-05
-3.94811e-07
1.05682e-05
-3.98138e-07
1.04906e-05
-3.98861e-07
1.04093e-05
-3.96044e-07
1.03237e-05
-3.89674e-07
1.02336e-05
-3.8017e-07
1.0139e-05
-3.67826e-07
1.00403e-05
-3.53017e-07
9.93816e-06
-3.36183e-07
9.8331e-06
-3.1776e-07
9.72591e-06
-2.98277e-07
9.61732e-06
-2.78308e-07
9.50799e-06
-2.58393e-07
9.39846e-06
-2.39095e-07
9.28918e-06
-2.21044e-07
9.18043e-06
-2.04776e-07
9.07216e-06
-1.90692e-07
8.96397e-06
-1.79112e-07
8.85541e-06
-1.70432e-07
8.74599e-06
-1.6495e-07
8.63503e-06
-1.6272e-07
8.52175e-06
-1.63731e-07
8.40532e-06
-1.67929e-07
8.28493e-06
-1.75089e-07
8.15943e-06
-1.84558e-07
8.02761e-06
-1.95676e-07
7.88863e-06
-2.07948e-07
7.742e-06
-2.20701e-07
7.58764e-06
-2.33159e-07
7.42586e-06
-2.44389e-07
7.2571e-06
-2.52965e-07
7.0816e-06
-2.57148e-07
6.89915e-06
-2.55473e-07
6.70877e-06
-2.47232e-07
6.50898e-06
-2.33003e-07
6.29799e-06
-2.14629e-07
6.07407e-06
-1.9519e-07
-1.77573e-07
5.83551e-06
1.04154e-05
-1.43654e-07
1.0347e-05
-1.56734e-07
1.02686e-05
-1.69251e-07
1.01805e-05
-1.80892e-07
1.0083e-05
-1.91485e-07
9.97707e-06
-2.00584e-07
9.86324e-06
-2.08192e-07
9.7423e-06
-2.14213e-07
9.61503e-06
-2.18654e-07
9.48214e-06
-2.2172e-07
9.34409e-06
-2.23673e-07
9.20116e-06
-2.24924e-07
9.0538e-06
-2.26113e-07
8.90249e-06
-2.27673e-07
8.74752e-06
-2.29628e-07
8.5891e-06
-2.31624e-07
8.42667e-06
-2.32383e-07
8.25795e-06
-2.29417e-07
8.08089e-06
-2.21804e-07
7.8954e-06
-2.10556e-07
7.70255e-06
-1.96824e-07
7.50401e-06
-1.81624e-07
7.30175e-06
-1.65566e-07
7.09783e-06
-1.49097e-07
6.89456e-06
-1.32917e-07
6.69433e-06
-1.17531e-07
6.49916e-06
-1.03102e-07
6.31063e-06
-8.97822e-08
6.12993e-06
-7.76976e-08
5.95772e-06
-6.68789e-08
5.79396e-06
-5.7287e-08
5.63808e-06
-4.88982e-08
5.48905e-06
-4.16603e-08
5.34529e-06
-3.53449e-08
5.20461e-06
-2.97527e-08
5.0647e-06
-2.50379e-08
4.92336e-06
-2.13794e-08
4.77831e-06
-1.86903e-08
4.62732e-06
-1.69362e-08
4.4687e-06
-1.64681e-08
4.30196e-06
-1.78215e-08
4.12749e-06
-2.11991e-08
3.94592e-06
-2.63783e-08
3.7583e-06
-3.3087e-08
3.56617e-06
-4.1031e-08
3.37154e-06
-4.97563e-08
3.17724e-06
-5.86585e-08
2.98678e-06
-6.66936e-08
2.80197e-06
-7.06622e-08
2.62193e-06
-6.71904e-08
2.44466e-06
-5.57326e-08
2.26708e-06
-3.70561e-08
2.08635e-06
-1.44536e-08
5.23192e-09
1.90354e-06
6.18473e-06
6.028e-06
5.85875e-06
5.67785e-06
5.48637e-06
5.28579e-06
5.07759e-06
4.86338e-06
4.64473e-06
4.42301e-06
4.19933e-06
3.97441e-06
3.7483e-06
3.52062e-06
3.291e-06
3.05937e-06
2.82699e-06
2.59757e-06
2.37577e-06
2.16521e-06
1.96839e-06
1.78676e-06
1.6212e-06
1.4721e-06
1.33918e-06
1.22165e-06
1.11855e-06
1.02877e-06
9.51072e-07
8.84193e-07
8.26906e-07
7.78008e-07
7.36347e-07
7.01003e-07
6.7125e-07
6.46212e-07
6.24833e-07
6.06142e-07
5.89206e-07
5.72738e-07
5.54917e-07
5.33717e-07
5.07339e-07
4.74252e-07
4.33221e-07
3.83465e-07
3.24806e-07
2.58113e-07
1.87451e-07
1.2026e-07
6.45275e-08
2.74714e-08
1.30178e-08
1.82497e-08
4.48072e-06
-4.20402e-07
5.73133e-07
4.42726e-06
-3.91625e-07
4.45086e-07
4.44202e-06
-2.6525e-07
2.50486e-07
4.61559e-06
-9.73167e-08
-7.625e-08
5.00192e-06
1.50868e-07
-5.37197e-07
5.62889e-06
3.50718e-07
-9.77687e-07
6.43282e-06
4.66029e-07
-1.26997e-06
7.33466e-06
4.44296e-07
-1.34613e-06
8.27283e-06
2.32085e-07
-1.17026e-06
9.2217e-06
-2.08092e-07
-7.40774e-07
1.01323e-05
-8.87366e-07
-2.32207e-08
1.08383e-05
-1.69231e-06
9.86293e-07
1.12338e-05
-2.47232e-06
2.07685e-06
1.13493e-05
-3.14095e-06
3.02543e-06
1.1253e-05
-3.66317e-06
3.75942e-06
1.10091e-05
-4.02377e-06
4.26774e-06
1.06653e-05
-4.2255e-06
4.56924e-06
1.02647e-05
-4.29002e-06
4.69062e-06
9.84798e-06
-4.24993e-06
4.66669e-06
9.44231e-06
-4.13885e-06
4.54452e-06
9.0601e-06
-3.98293e-06
4.36513e-06
8.70258e-06
-3.79844e-06
4.15596e-06
8.36517e-06
-3.59679e-06
3.9342e-06
8.04597e-06
-3.38509e-06
3.70428e-06
7.74778e-06
-3.162e-06
3.46019e-06
7.46166e-06
-2.9191e-06
3.20522e-06
7.1478e-06
-2.66087e-06
2.97474e-06
6.75809e-06
-2.42123e-06
2.81094e-06
6.30638e-06
-2.23764e-06
2.68936e-06
5.89214e-06
-2.08704e-06
2.50127e-06
5.62962e-06
-1.87214e-06
2.13467e-06
5.56716e-06
-1.49877e-06
1.56123e-06
5.69439e-06
-9.48347e-07
8.21112e-07
5.96063e-06
-2.65836e-07
-3.96504e-10
6.29622e-06
4.64392e-07
-7.99989e-07
6.65545e-06
1.15606e-06
-1.51529e-06
7.0115e-06
1.76736e-06
-2.12342e-06
7.34508e-06
2.28579e-06
-2.61937e-06
7.6436e-06
2.71267e-06
-3.01118e-06
7.90099e-06
3.05842e-06
-3.31581e-06
8.11762e-06
3.33798e-06
-3.55461e-06
8.29935e-06
3.56545e-06
-3.74718e-06
8.45559e-06
3.74824e-06
-3.90448e-06
8.59871e-06
3.88304e-06
-4.02615e-06
8.7468e-06
3.95155e-06
-4.09964e-06
8.92259e-06
3.91759e-06
-4.09338e-06
9.13645e-06
3.74083e-06
-3.9547e-06
9.38485e-06
3.38539e-06
-3.63379e-06
9.66309e-06
2.84013e-06
-3.11836e-06
9.96088e-06
2.12277e-06
-2.42056e-06
1.02575e-05
1.28598e-06
-1.58262e-06
1.05216e-05
4.22024e-07
-6.86105e-07
1.07333e-05
-3.8864e-07
1.76934e-07
1.08816e-05
-1.09913e-06
9.50834e-07
1.09635e-05
-1.68496e-06
1.60307e-06
1.09827e-05
-2.14017e-06
2.12093e-06
1.09473e-05
-2.47186e-06
2.50725e-06
1.08659e-05
-2.69369e-06
2.77513e-06
1.07439e-05
-2.81823e-06
2.94024e-06
1.05863e-05
-2.85858e-06
3.01618e-06
1.04037e-05
-2.83557e-06
3.0182e-06
1.02045e-05
-2.77017e-06
2.96937e-06
9.99359e-06
-2.67876e-06
2.88963e-06
9.77304e-06
-2.57507e-06
2.79561e-06
9.54286e-06
-2.47157e-06
2.70175e-06
9.3028e-06
-2.37924e-06
2.6193e-06
9.05423e-06
-2.30465e-06
2.55322e-06
8.80143e-06
-2.24616e-06
2.49896e-06
8.55183e-06
-2.19233e-06
2.44194e-06
8.31528e-06
-2.12323e-06
2.35978e-06
8.10204e-06
-2.01468e-06
2.22792e-06
7.92031e-06
-1.84565e-06
2.02738e-06
7.77537e-06
-1.60523e-06
1.75017e-06
7.66994e-06
-1.29478e-06
1.40021e-06
7.60488e-06
-9.25694e-07
9.90752e-07
7.57938e-06
-5.15431e-07
5.40928e-07
7.59073e-06
-8.42563e-08
7.29127e-08
3.46531e-07
-3.90407e-07
7.78038e-06
-4.76682e-07
7.86256e-06
-4.73811e-07
7.99294e-06
-3.9563e-07
8.16401e-06
-2.68391e-07
8.44712e-06
-1.32241e-07
8.85123e-06