/*--------------------------------*- C++ -*----------------------------------*\
| =========                 |                                                 |
| \\      /  F ield         | OpenFOAM: The Open Source CFD Toolbox           |
|  \\    /   O peration     | Version:  2206                                  |
|   \\  /    A nd           | Website:  www.openfoam.com                      |
|    \\/     M anipulation  |                                                 |
\*---------------------------------------------------------------------------*/
FoamFile
{
    version     2.0;
    format      ascii;
    arch        "LSB;label=32;scalar=64";
    class       surfaceScalarField;
    location    "19.2999";
    object      ddtCorrDdt0(phi);
}
// * * * * * * * * * * * * * * * * * * * * * * * * * * * * * * * * * * * * * //

dimensions      [0 3 -2 0 0 0 0];

oriented        oriented;

internalField   nonuniform List<scalar> 
9559
(
-4.9094e-05
0.000541342
-0.000552396
-3.69647e-05
0.000513983
-0.000526113
-2.39959e-05
0.000480517
-0.000493486
-1.04404e-05
0.000442116
-0.000455671
3.44056e-06
0.00040002
-0.000413901
1.73701e-05
0.000355463
-0.000369392
3.1062e-05
0.000309612
-0.000323304
4.42797e-05
0.000263516
-0.000276733
5.69037e-05
0.000218083
-0.000230707
6.89469e-05
0.000174089
-0.000186133
8.061e-05
0.00013204
-0.000143703
9.25443e-05
9.17172e-05
-0.000103652
0.000105675
5.20379e-05
-6.51687e-05
0.000119115
1.37967e-05
-2.72368e-05
0.000131287
-1.94354e-05
7.26395e-06
0.00014239
-4.76765e-05
3.65729e-05
0.000152229
-7.12266e-05
6.13882e-05
0.000160517
-9.07063e-05
8.24183e-05
0.000166981
-0.000107159
0.000100695
0.000171377
-0.00012184
0.000117444
0.000173531
-0.00013609
0.000133937
0.000173366
-0.000151166
0.000151331
0.000170908
-0.000168079
0.000170538
0.000166249
-0.000187474
0.000192133
0.000159525
-0.000209584
0.000216309
0.000150876
-0.000234241
0.000242889
0.00014044
-0.000260942
0.000271379
0.000128342
-0.00028894
0.000301037
0.000114718
-0.000317326
0.00033095
9.974e-05
-0.000345104
0.000360082
8.36584e-05
-0.000371235
0.000387317
6.66971e-05
-0.000394691
0.000411652
4.91065e-05
-0.000414577
0.000432167
3.11842e-05
-0.000430104
0.000448026
1.32944e-05
-0.000440529
0.000458419
-4.01723e-06
-0.000444677
0.000461989
-2.05273e-05
-0.000442232
0.000458742
-3.59938e-05
-0.000434852
0.000450318
-5.01879e-05
-0.000422621
0.000436815
-6.29128e-05
-0.000405791
0.000418516
-7.40168e-05
-0.000384776
0.00039588
-8.33943e-05
-0.000360112
0.000369489
-9.09807e-05
-0.000332424
0.000340011
-9.67459e-05
-0.000302398
0.000308163
-0.000100703
-0.000270756
0.000274713
-0.000102928
-0.00023823
0.000240455
-0.000103555
-0.000205517
0.000206144
-0.000102785
-0.000173229
0.000172459
-0.000100923
-0.000141845
0.000139983
-9.83697e-05
-0.000111605
0.000109051
-9.56246e-05
-8.24257e-05
7.96807e-05
-9.31973e-05
-5.37156e-05
5.12883e-05
-9.11434e-05
-2.40768e-05
2.20229e-05
-8.89698e-05
7.11956e-06
-9.29319e-06
-8.6782e-05
3.83765e-05
-4.05643e-05
-8.49148e-05
6.95315e-05
-7.13987e-05
-8.36045e-05
0.000100701
-0.000102011
-8.29241e-05
0.000132097
-0.000132777
-8.28286e-05
0.00016391
-0.000164006
-8.31868e-05
0.000196214
-0.000195856
-8.38138e-05
0.000228928
-0.000228301
-8.4498e-05
0.000261805
-0.000261121
-8.50214e-05
0.000294443
-0.00029392
-8.51775e-05
0.000326315
-0.000326159
-8.47856e-05
0.000356804
-0.000357196
-8.37001e-05
0.000385238
-0.000386323
-8.18168e-05
0.000410927
-0.000412811
-7.90712e-05
0.000433167
-0.000435913
-7.53919e-05
0.000451144
-0.000454823
-7.05894e-05
0.000463677
-0.000468479
-6.41003e-05
0.000468374
-0.000474863
-5.66083e-05
0.000465356
-0.000472849
-4.81824e-05
0.000456447
-0.000464873
-3.89165e-05
0.000441819
-0.000451084
-2.89111e-05
0.000421797
-0.000431802
-1.82823e-05
0.000396829
-0.000407458
-7.16038e-06
0.000367494
-0.000378616
4.31482e-06
0.000334472
-0.000345947
1.59927e-05
0.000298536
-0.000310214
2.77175e-05
0.000260535
-0.00027226
3.93246e-05
0.000221386
-0.000232993
5.06688e-05
0.000182027
-0.000193371
6.1714e-05
0.000143278
-0.000154323
7.27563e-05
0.000105542
-0.000116585
8.48069e-05
6.82127e-05
-8.02634e-05
9.84101e-05
3.04702e-05
-4.40733e-05
0.000111249
-4.69468e-06
-8.14388e-06
0.000122825
-3.49223e-05
2.33459e-05
0.000132891
-6.02841e-05
5.02179e-05
0.000141099
-8.0963e-05
7.27549e-05
0.000147227
-9.76108e-05
9.14829e-05
0.000151153
-0.000111228
0.000107303
0.000152841
-0.000123006
0.000121318
0.000152364
-0.000134178
0.000134655
0.000149894
-0.000145845
0.000148315
0.000145651
-0.000158841
0.000163084
0.000139855
-0.000173664
0.000179461
0.000132694
-0.000190474
0.000197635
0.000124322
-0.000209134
0.000217507
0.000114861
-0.000229275
0.000238736
0.000104417
-0.000250353
0.000260797
9.30868e-05
-0.000271708
0.000283038
8.09708e-05
-0.000292619
0.000304735
6.81827e-05
-0.000312347
0.000325135
5.48392e-05
-0.000330189
0.000343532
4.10706e-05
-0.000345481
0.000359249
2.70394e-05
-0.000357607
0.000371638
1.29554e-05
-0.000365933
0.000380017
-8.32983e-07
-0.00036944
0.000383229
-1.41382e-05
-0.000367663
0.000380968
-2.67931e-05
-0.000361905
0.00037456
-3.86319e-05
-0.000352169
0.000364008
-4.94936e-05
-0.000338572
0.000349434
-5.9234e-05
-0.000321346
0.000331087
-6.77306e-05
-0.000300845
0.000309342
-7.4878e-05
-0.000277518
0.000284665
-8.05914e-05
-0.000251883
0.000257596
-8.4818e-05
-0.000224532
0.000228759
-8.75712e-05
-0.000196108
0.000198861
-8.89368e-05
-0.00016724
0.000168605
-8.90769e-05
-0.000138492
0.000138632
-8.82586e-05
-0.000110313
0.000109495
-8.68739e-05
-8.29621e-05
8.15775e-05
-8.54307e-05
-5.63554e-05
5.49121e-05
-8.4306e-05
-2.97219e-05
2.85972e-05
-8.30236e-05
-1.68243e-06
4.00038e-07
-8.12884e-05
2.6883e-05
-2.86181e-05
-7.93281e-05
5.48553e-05
-5.68156e-05
-7.7457e-05
8.20502e-05
-8.39213e-05
-7.5888e-05
0.000108476
-0.000110045
-7.47219e-05
0.000134268
-0.000135435
-7.39714e-05
0.000159559
-0.000160309
-7.3578e-05
0.000184461
-0.000184854
-7.34263e-05
0.000209004
-0.000209156
-7.33527e-05
0.000233071
-0.000233145
-7.32357e-05
0.000256187
-0.000256304
-7.2937e-05
0.000280048
-0.000280346
-7.24265e-05
0.000299736
-0.000300246
0.000328111
-0.000329402
-4.61782e-05
0.00052719
-3.11751e-05
0.00049898
-1.55961e-05
0.000464938
2.68912e-07
0.000426251
1.6132e-05
0.000384157
3.17237e-05
0.000339871
4.68066e-05
0.000294529
6.11817e-05
0.000249141
7.47269e-05
0.000204537
8.75426e-05
0.000161274
0.000100093
0.000119489
0.000113244
7.85667e-05
0.000127154
3.81278e-05
0.00014013
8.20603e-07
0.000152037
-3.13428e-05
0.000162824
-5.84631e-05
0.00017227
-8.06727e-05
0.000180137
-9.85734e-05
0.000186156
-0.000113178
0.000190079
-0.000125763
0.000191724
-0.000137735
0.000191004
-0.000150447
0.000187931
-0.000165006
0.000182592
-0.000182135
0.00017512
-0.000202112
0.000165667
-0.000224788
0.000154384
-0.00024966
0.000141416
-0.000275971
0.000126902
-0.000302812
0.000110997
-0.000329199
9.39115e-05
-0.00035415
7.58878e-05
-0.000376667
5.71795e-05
-0.000395868
3.80837e-05
-0.000411008
1.89419e-05
-0.000421388
2.85192e-07
-0.00042602
-1.76191e-05
-0.000424328
-3.45243e-05
-0.000417947
-5.01931e-05
-0.000406952
-6.4415e-05
-0.000391569
-7.70197e-05
-0.000372171
-8.788e-05
-0.000349251
-9.69155e-05
-0.000323389
-0.000104093
-0.000295221
-0.000109434
-0.000265415
-0.000113024
-0.00023464
-0.000115008
-0.000203532
-0.000115588
-0.000172649
-0.000115089
-0.000142345
-0.000113899
-0.000112794
-0.000112461
-8.38637e-05
-0.000111193
-5.49836e-05
-0.000110155
-2.51145e-05
-0.000108989
5.95313e-06
-0.000107754
3.71413e-05
-0.000106679
6.84571e-05
-0.000105931
9.99528e-05
-0.000105561
0.000131726
-0.000105524
0.000163873
-0.000105697
0.000196387
-0.000105902
0.000229133
-0.000105932
0.000261835
-0.000105575
0.000294086
-0.00010463
0.000325369
-0.000102923
0.000355097
-0.000100325
0.00038264
-9.67535e-05
0.000407356
-9.21524e-05
0.000428566
-8.6438e-05
0.000445429
-7.93908e-05
0.00045663
-7.05117e-05
0.000459495
-6.06717e-05
0.000455517
-4.99132e-05
0.000445689
-3.83504e-05
0.000430256
-2.61138e-05
0.00040956
-1.33511e-05
0.000384067
-2.21507e-07
0.000354364
1.31064e-05
0.000321144
2.64552e-05
0.000285187
3.96554e-05
0.000247335
5.25559e-05
0.000208486
6.50761e-05
0.000169507
7.73642e-05
0.00013099
9.00659e-05
9.28407e-05
0.000104135
5.41441e-05
0.000118597
1.60078e-05
0.000131643
-1.77405e-05
0.000143261
-4.65409e-05
0.000153144
-7.01667e-05
0.000161003
-8.8822e-05
0.000166642
-0.00010325
0.000169943
-0.000114529
0.00017089
-0.000123953
0.000169589
-0.000132877
0.000166251
-0.000142507
0.000161134
-0.000153725
0.000154478
-0.000167008
0.000146473
-0.000182469
0.000137268
-0.000199929
0.000126976
-0.000218983
0.000115689
-0.000239065
0.000103488
-0.000259507
9.04621e-05
-0.000279592
7.67127e-05
-0.000298598
6.23529e-05
-0.000315829
4.7515e-05
-0.000330643
3.23627e-05
-0.000342454
1.7095e-05
-0.000350665
2.06272e-06
-0.000354408
-1.25186e-05
-0.000353082
-2.64704e-05
-0.000347953
-3.96131e-05
-0.000339027
-5.17718e-05
-0.000326413
-6.27869e-05
-0.000310331
-7.25207e-05
-0.000291111
-8.08591e-05
-0.000269179
-8.77202e-05
-0.000245022
-9.30668e-05
-0.000219186
-9.69271e-05
-0.000192247
-9.93991e-05
-0.000164768
-0.000100659
-0.000137232
-0.000100976
-0.000109996
-0.000100709
-8.32293e-05
-0.000100272
-5.67925e-05
-9.99301e-05
-3.00638e-05
-9.93617e-05
-2.2508e-06
-9.83502e-05
2.58714e-05
-9.70506e-05
5.35558e-05
-9.56868e-05
8.06863e-05
-9.44296e-05
0.000107218
-9.33704e-05
0.000133209
-9.25262e-05
0.000158715
-9.18553e-05
0.00018379
-9.1256e-05
0.000208405
-9.05773e-05
0.000232392
-8.97278e-05
0.000255337
-8.85705e-05
0.00027889
-8.70988e-05
0.000298264
0.000325688
-4.2467e-05
0.000510079
-2.47117e-05
0.000481225
-6.63801e-06
0.000446864
1.14213e-05
0.000408191
2.91504e-05
0.000366428
4.62713e-05
0.00032275
6.25658e-05
0.000278235
7.79033e-05
0.000233803
9.22867e-05
0.000190154
0.000105934
0.000147626
0.000119479
0.000105944
0.000133624
6.44222e-05
0.000147669
2.40823e-05
0.000160354
-1.18645e-05
0.000171947
-4.29356e-05
0.000182339
-6.88548e-05
0.000191328
-8.96616e-05
0.000198683
-0.000105929
0.000204142
-0.000118637
0.000207462
-0.000129082
0.000208465
-0.000138739
0.000207071
-0.000149052
0.000203296
-0.000161231
0.000197231
-0.000176071
0.000189008
-0.000193889
0.000178773
-0.000214553
0.000166679
-0.000237566
0.000152877
-0.00026217
0.000137519
-0.000287453
0.000120763
-0.000312443
0.000102786
-0.000336173
8.3833e-05
-0.000357715
6.41621e-05
-0.000376198
4.40573e-05
-0.000390903
2.38501e-05
-0.00040118
4.05452e-06
-0.000406225
-1.50331e-05
-0.00040524
-3.31678e-05
-0.000399812
-5.01083e-05
-0.000390012
-6.56347e-05
-0.000376043
-7.95665e-05
-0.000358239
-9.17666e-05
-0.000337051
-0.000102146
-0.00031301
-0.000110669
-0.000286697
-0.000117362
-0.000258722
-0.000122308
-0.000229694
-0.000125643
-0.000200197
-0.000127606
-0.000170686
-0.000128498
-0.000141452
-0.000128693
-0.0001126
-0.000128586
-8.39708e-05
-0.000128521
-5.50486e-05
-0.000128532
-2.51031e-05
-0.00012834
5.76079e-06
-0.000127994
3.67957e-05
-0.000127659
6.81218e-05
-0.00012744
9.97346e-05
-0.000127363
0.000131649
-0.000127372
0.000163882
-0.000127342
0.000196358
-0.000127102
0.000228893
-0.000126452
0.000261185
-0.000125186
0.00029282
-0.000123117
0.0003233
-0.000120088
0.000352068
-0.000115989
0.000378541
-0.000110755
0.000402122
-0.000104338
0.000422149
-9.66376e-05
0.000437729
-8.72531e-05
0.000447245
-7.61438e-05
0.000448386
-6.40476e-05
0.00044342
-5.10472e-05
0.000432688
-3.7282e-05
0.00041649
-2.29144e-05
0.000395192
-8.12047e-06
0.000369273
6.91488e-06
0.000339329
2.19974e-05
0.000306062
3.69298e-05
0.000270255
5.15381e-05
0.000232726
6.57107e-05
0.000194313
7.94836e-05
0.000155734
9.32652e-05
0.000117208
0.000107984
7.81218e-05
0.000123712
3.84162e-05
0.000138394
1.32565e-06
0.000151664
-3.10102e-05
0.000163248
-5.8125e-05
0.000172823
-7.9742e-05
0.000180171
-9.61699e-05
0.000185132
-0.000108211
0.000187621
-0.000117018
0.000187651
-0.000123983
0.000185372
-0.000130598
0.000181055
-0.000138189
0.000175
-0.00014767
0.000167457
-0.000159465
0.00015861
-0.000173622
0.000148591
-0.00018991
0.000137498
-0.00020789
0.00012541
-0.000226977
0.000112399
-0.000246496
9.85401e-05
-0.000265733
8.39264e-05
-0.000283984
6.86666e-05
-0.000300569
5.28929e-05
-0.000314869
3.67642e-05
-0.000326326
2.04771e-05
-0.000334378
4.3786e-06
-0.00033831
-1.12955e-05
-0.000337408
-2.63597e-05
-0.000332889
-4.06259e-05
-0.00032476
-5.39093e-05
-0.00031313
-6.60395e-05
-0.000298201
-7.68731e-05
-0.000280278
-8.62959e-05
-0.000259757
-9.42285e-05
-0.000237089
-0.000100646
-0.000212768
-0.000105587
-0.000187306
-0.000109158
-0.000161197
-0.000111535
-0.000134854
-0.00011298
-0.000108551
-0.000113814
-8.23955e-05
-0.000114373
-5.62326e-05
-0.000114845
-2.95928e-05
-0.00011499
-2.10559e-06
-0.000114649
2.55306e-05
-0.00011395
5.28572e-05
-0.000113061
7.97971e-05
-0.00011211
0.000106267
-0.000111168
0.000132267
-0.000110249
0.000157796
-0.000109321
0.000182861
-0.000108287
0.000207371
-0.000107013
0.000231118
-0.000105443
0.000253768
-0.000103438
0.000276885
-0.000101011
0.000295838
0.000322135
-3.79531e-05
0.000490204
-1.76561e-05
0.000460928
2.69332e-06
0.000426515
2.27315e-05
0.000388153
4.21264e-05
0.000347033
6.06002e-05
0.000304277
7.79643e-05
0.00026087
9.41648e-05
0.000217603
0.000109344
0.000174974
0.000123942
0.000133029
0.000138652
9.12342e-05
0.00015347
4.96043e-05
0.000167184
1.03686e-05
0.000179686
-2.43669e-05
0.000190984
-5.4233e-05
0.000200936
-7.8807e-05
0.000209382
-9.81079e-05
0.000216107
-0.000112654
0.000220867
-0.000123397
0.000223436
-0.000131652
0.000223653
-0.000138956
0.000221452
-0.000146851
0.000216881
-0.00015666
0.000210044
-0.000169234
0.000201069
-0.000184913
0.000190089
-0.000203573
0.000177243
-0.00022472
0.000162677
-0.000247604
0.000146547
-0.000271323
0.000129018
-0.000294914
0.000110268
-0.000317423
9.05167e-05
-0.000337963
7.00267e-05
-0.000355708
4.90735e-05
-0.00036995
2.79811e-05
-0.000380088
7.22965e-06
-0.000385473
-1.28327e-05
-0.000385178
-3.19943e-05
-0.00038065
-5.00127e-05
-0.000371993
-6.66648e-05
-0.000359391
-8.17641e-05
-0.00034314
-9.51703e-05
-0.000323645
-0.000106791
-0.000301389
-0.000116587
-0.000276901
-0.000124579
-0.000250731
-0.00013084
-0.000223433
-0.000135521
-0.000195516
-0.000138861
-0.000167346
-0.000141149
-0.000139164
-0.000142728
-0.000111021
-0.000143957
-8.27414e-05
-0.000145112
-5.38939e-05
-0.000146162
-2.40534e-05
-0.000146886
6.48464e-06
-0.000147365
3.72749e-05
-0.000147709
6.84657e-05
-0.00014797
9.99955e-05
-0.000148143
0.000131823
-0.000148161
0.000163899
-0.000147894
0.000196092
-0.000147175
0.000228174
-0.000145814
0.000259823
-0.000143618
0.000290625
-0.000140416
0.000320098
-0.000136073
0.000347725
-0.000130496
0.000372964
-0.00012363
0.000395256
-0.000115443
0.000413962
-0.000105799
0.000428084
-9.40726e-05
0.000435519
-8.08983e-05
0.000435211
-6.66669e-05
0.000429189
-5.15457e-05
0.000417567
-3.57012e-05
0.000400646
-1.93249e-05
0.000378816
-2.61994e-06
0.000352568
1.4205e-05
0.000322504
3.09347e-05
0.000289332
4.7362e-05
0.000253828
6.33284e-05
0.00021676
7.88035e-05
0.000178838
9.40131e-05
0.000140524
0.000109672
0.000101549
0.000126394
6.13997e-05
0.000142973
2.18367e-05
0.000158002
-1.37033e-05
0.000171368
-4.4376e-05
0.000182725
-6.94823e-05
0.0001918
-8.88165e-05
0.000198416
-0.000102786
0.000202465
-0.00011226
0.000203922
-0.000118474
0.000202839
-0.0001229
0.000199442
-0.000127201
0.000194074
-0.000132822
0.000187078
-0.000140674
0.000178665
-0.000151052
0.000168996
-0.000163954
0.000158194
-0.000179108
0.000146342
-0.000196039
0.000133508
-0.000214143
0.000119753
-0.000232742
0.000105145
-0.000251125
8.97694e-05
-0.000268608
7.37319e-05
-0.000284532
5.716e-05
-0.000298297
4.02068e-05
-0.000309372
2.30688e-05
-0.00031724
6.08333e-06
-0.000321324
-1.0497e-05
-0.000320827
-2.64878e-05
-0.000316898
-4.16971e-05
-0.000309551
-5.5937e-05
-0.00029889
-6.9032e-05
-0.000285106
-8.08348e-05
-0.000268475
-9.12363e-05
-0.000249355
-0.000100164
-0.000228162
-0.000107597
-0.000205336
-0.000113579
-0.000181324
-0.000118222
-0.000156553
-0.000121698
-0.000131378
-0.000124247
-0.000106003
-0.000126156
-8.04864e-05
-0.000127697
-5.46914e-05
-0.000128984
-2.83055e-05
-0.000129825
-1.26491e-06
-0.000130112
2.5817e-05
-0.000129963
5.27091e-05
-0.000129506
7.93398e-05
-0.000128834
0.000105594
-0.000127998
0.000131432
-0.000127007
0.000156805
-0.000125826
0.000181681
-0.000124363
0.000205908
-0.0001225
0.000229255
-0.000120227
0.000251494
-0.000117385
0.000274044
-0.000114016
0.000292468
0.000317461
-3.27335e-05
0.00046781
-1.01451e-05
0.000438339
1.22305e-05
0.000404139
3.4008e-05
0.000366376
5.48511e-05
0.00032619
7.45011e-05
0.000284627
9.28228e-05
0.000242549
0.000109858
0.000200567
0.000125894
0.000158938
0.000141501
0.000117422
0.00015715
7.5586e-05
0.00017228
3.44738e-05
0.000185848
-3.19888e-06
0.000198133
-3.66523e-05
0.000209071
-6.51709e-05
0.000218519
-8.82554e-05
0.000226322
-0.000105911
0.000232283
-0.000118615
0.000236192
-0.000127306
0.000237849
-0.000133308
0.00023713
-0.000138237
0.000233994
-0.000143714
0.000228554
-0.00015122
0.000220917
-0.000161598
0.000211204
-0.0001752
0.000199524
-0.000191893
0.000185997
-0.000211193
0.000170756
-0.000232363
0.000153951
-0.000254518
0.00013575
-0.000276713
0.000116341
-0.000298014
9.5929e-05
-0.000317551
7.47674e-05
-0.000334546
5.3125e-05
-0.000348308
3.13176e-05
-0.00035828
9.76349e-06
-0.000363919
-1.10802e-05
-0.000364334
-3.10814e-05
-0.000360649
-4.99955e-05
-0.000353079
-6.76064e-05
-0.00034178
-8.3726e-05
-0.00032702
-9.82093e-05
-0.000309162
-0.000110962
-0.000288636
-0.000121941
-0.000265921
-0.000131158
-0.000241514
-0.000138677
-0.000215913
-0.000144674
-0.000189519
-0.000149372
-0.000162649
-0.000153044
-0.000135492
-0.000155996
-0.000108069
-0.00015854
-8.01977e-05
-0.000160883
-5.15506e-05
-0.00016292
-2.20164e-05
-0.000164495
8.05898e-06
-0.000165735
3.85155e-05
-0.000166686
6.94161e-05
-0.000167356
0.000100666
-0.000167718
0.000132185
-0.000167689
0.00016387
-0.000167138
0.00019554
-0.0001659
0.000226937
-0.000163798
0.00025772
-0.000160655
0.000287482
-0.000156319
0.000315762
-0.000150673
0.000342079
-0.000143645
0.000365936
-0.000135204
0.000386814
-0.000125307
0.000404066
-0.000113732
0.000416509
-9.98455e-05
0.000421633
-8.46991e-05
0.000420065
-6.8474e-05
0.000412964
-5.13757e-05
0.000400469
-3.35937e-05
0.000382864
-1.53436e-05
0.000360566
3.14326e-06
0.000334081
2.16362e-05
0.000304011
3.99076e-05
0.000271061
5.77545e-05
0.000235981
7.50653e-05
0.000199449
9.19404e-05
0.000161963
0.000108871
0.000123593
0.000126675
8.37462e-05
0.000145044
4.30302e-05
0.000162014
4.86718e-06
0.00017734
-2.90302e-05
0.000190659
-5.7694e-05
0.000201606
-8.04297e-05
0.000209963
-9.71732e-05
0.000215594
-0.000108418
0.000218451
-0.000115116
0.00021849
-0.000118513
0.000216002
-0.000120412
0.000211464
-0.000122664
0.000205177
-0.000126535
0.000197279
-0.000132776
0.000187993
-0.000141766
0.000177534
-0.000153495
0.000165989
-0.000167563
0.000153431
-0.000183481
0.000139917
-0.000200629
0.000125497
-0.000218322
0.000110235
-0.000235863
9.42116e-05
-0.000252585
7.75246e-05
-0.000267845
6.02973e-05
-0.00028107
4.26757e-05
-0.000291751
2.48552e-05
-0.00029942
7.14893e-06
-0.000303618
-1.01467e-05
-0.000303532
-2.68848e-05
-0.00030016
-4.2865e-05
-0.000293571
-5.78988e-05
-0.000283856
-7.18145e-05
-0.00027119
-8.44643e-05
-0.000255825
-9.57401e-05
-0.000238079
-0.000105579
-0.000218323
-0.000113966
-0.000196949
-0.000120942
-0.000174348
-0.000126614
-0.000150881
-0.000131155
-0.000126837
-0.000134777
-0.000102381
-0.000137724
-7.75398e-05
-0.000140211
-5.22042e-05
-0.000142292
-2.62244e-05
-0.000143791
2.34257e-07
-0.000144657
2.66832e-05
-0.000145012
5.30635e-05
-0.000144942
7.92697e-05
-0.000144513
0.000105165
-0.00014376
0.000130679
-0.00014268
0.000155725
-0.00014124
0.000180241
-0.000139341
0.000204009
-0.000136897
0.000226812
-0.000133941
0.000248537
-0.00013028
0.000270383
-0.000125984
0.000288172
0.000311666
-2.69314e-05
0.000443184
-2.33322e-06
0.000413741
2.17978e-05
0.000380008
4.5061e-05
0.000343113
6.71289e-05
0.000304122
8.77815e-05
0.000263974
0.000106958
0.000223372
0.000124821
0.000182704
0.00014182
0.00014194
0.000158559
0.000100682
0.000174909
5.92363e-05
0.000189912
1.94711e-05
0.000203485
-1.67719e-05
0.000215627
-4.87945e-05
0.000226209
-7.5753e-05
0.000235102
-9.71482e-05
0.000242146
-0.000112955
0.00024717
-0.000123639
0.000250014
-0.00013015
0.00025052
-0.000133815
0.00024863
-0.000136347
0.000244483
-0.000139568
0.000238172
-0.000144909
0.000229743
-0.000153168
0.000219336
-0.000164793
0.00020701
-0.000179567
0.000192873
-0.000197055
0.00017705
-0.00021654
0.000159682
-0.00023715
0.000140931
-0.000257962
0.000120986
-0.000278068
0.000100052
-0.000296617
7.83661e-05
-0.00031286
5.61979e-05
-0.00032614
3.38361e-05
-0.000335919
1.16445e-05
-0.000341728
-9.82374e-06
-0.000342866
-3.04958e-05
-0.000339977
-5.01404e-05
-0.000333435
-6.85552e-05
-0.000323365
-8.55531e-05
-0.000310022
-0.000100986
-0.000293729
-0.000114755
-0.000274867
-0.000126813
-0.000253863
-0.000137162
-0.000231166
-0.00014589
-0.000207185
-0.000153158
-0.000182252
-0.00015917
-0.000156636
-0.00016418
-0.000130482
-0.000168465
-0.000103784
-0.000172278
-7.63841e-05
-0.000175728
-4.81012e-05
-0.000178692
-1.90524e-05
-0.000181073
1.04403e-05
-0.000182984
4.04266e-05
-0.000184445
7.0877e-05
-0.000185437
0.000101658
-0.00018591
0.000132658
-0.000185768
0.000163727
-0.000184876
0.000194649
-0.000183077
0.000225138
-0.000180205
0.000254848
-0.0001761
0.000283377
-0.000170632
0.000310294
-0.000163709
0.000335156
-0.000155283
0.00035751
-0.00014536
0.000376892
-0.000133859
0.000392565
-0.000120258
0.000402907
-0.000104484
0.00040586
-8.74964e-05
0.000403077
-6.94351e-05
0.000394902
-5.05128e-05
0.000381547
-3.09441e-05
0.000363295
-1.09593e-05
0.000340581
9.18221e-06
0.000313939
2.92247e-05
0.000283969
4.89428e-05
0.000251342
6.81683e-05
0.000216755
8.68803e-05
0.000180737
0.000105398
0.000143445
0.000124504
0.000104487
0.000144345
6.39051e-05
0.00016346
2.39154e-05
0.000180923
-1.25961e-05
0.000196396
-4.45034e-05
0.000209436
-7.07336e-05
0.000219734
-9.07281e-05
0.000227103
-0.000104542
0.000231434
-0.000112749
0.000232604
-0.000116287
0.000230918
-0.000116826
0.000227059
-0.000116553
0.00022141
-0.000117016
0.000214139
-0.000119263
0.000205392
-0.000124029
0.000195324
-0.000131697
0.000184096
-0.000142268
0.00017186
-0.000155326
0.000158671
-0.000170292
0.000144566
-0.000186524
0.000129582
-0.000203339
0.000113785
-0.000220065
9.72414e-05
-0.000236042
8.00428e-05
-0.000250646
6.23041e-05
-0.000263331
4.41717e-05
-0.000273618
2.58344e-05
-0.000281082
7.56808e-06
-0.000285352
-1.02657e-05
-0.000285698
-2.75803e-05
-0.000282846
-4.41696e-05
-0.000276982
-5.98464e-05
-0.000268179
-7.44439e-05
-0.000256593
-8.7821e-05
-0.000242448
-9.98719e-05
-0.000226029
-0.000110536
-0.000207658
-0.000119805
-0.000187681
-0.000127719
-0.000166434
-0.000134372
-0.000144228
-0.000139925
-0.000121284
-0.000144574
-9.77323e-05
-0.000148517
-7.35966e-05
-0.000151898
-4.88234e-05
-0.000154709
-2.34125e-05
-0.000156812
2.33669e-06
-0.000158215
2.80861e-05
-0.000159021
5.38702e-05
-0.000159289
7.95367e-05
-0.00015906
0.000104936
-0.000158354
0.000129974
-0.000157161
0.000154531
-0.000155443
0.000178524
-0.000153098
0.000201663
-0.000150084
0.000223798
-0.000146468
0.000244921
-0.000141998
0.000265913
-0.0001368
0.000282974
0.000304754
-2.06615e-05
0.000416632
5.6444e-06
0.000387435
3.12447e-05
0.000354408
5.57318e-05
0.000318625
7.88059e-05
0.000281048
0.000100311
0.000242469
0.000120285
0.000203399
0.000139023
0.000163965
0.000157075
0.000123889
0.000174766
8.29909e-05
0.000191561
4.24408e-05
0.000206642
4.38995e-06
0.000220218
-3.03477e-05
0.000232185
-6.07611e-05
0.000242381
-8.59491e-05
0.00025065
-0.000105417
0.000256824
-0.000119129
0.000260745
-0.000127561
0.000262205
-0.000131609
0.000261141
-0.000132751
0.00025789
-0.000133096
0.000252714
-0.000134392
0.000245588
-0.000137783
0.000236495
-0.000144076
0.000225402
-0.0001537
0.000212451
-0.000166616
0.000197775
-0.000182379
0.000181463
-0.000200229
0.000163646
-0.000219333
0.000144486
-0.000238802
0.000124165
-0.000257748
0.000102878
-0.00027533
8.08413e-05
-0.000290823
5.83067e-05
-0.000303605
3.55162e-05
-0.000313128
1.28143e-05
-0.000319026
-9.14979e-06
-0.000320902
-3.03024e-05
-0.000318824
-5.05034e-05
-0.000313234
-6.95746e-05
-0.000304294
-8.73158e-05
-0.000292281
-0.000103573
-0.000277472
-0.000118242
-0.000260198
-0.00013127
-0.000240836
-0.000142668
-0.000219767
-0.000152535
-0.000197317
-0.00016101
-0.000173777
-0.000168282
-0.000149364
-0.000174579
-0.000124185
-0.000180139
-9.82245e-05
-0.000185139
-7.13833e-05
-0.000189587
-4.36539e-05
-0.000193359
-1.52802e-05
-0.000196455
1.35361e-05
-0.000198951
4.29227e-05
-0.000200829
7.27551e-05
-0.000202052
0.000102881
-0.000202552
0.000133158
-0.000202223
0.000163399
-0.000200932
0.000193357
-0.000198527
0.000222734
-0.000194857
0.000251177
-0.000189782
0.000278302
-0.000183198
0.000303711
-0.000175036
0.000326994
-0.000165304
0.000347778
-0.00015401
0.000365599
-0.000140929
0.000379484
-0.000125316
0.000387294
-0.000107942
0.000388486
-8.92774e-05
0.000384412
-6.95319e-05
0.000375157
-4.8929e-05
0.000360944
-2.7713e-05
0.000342079
-6.12993e-06
0.000318998
1.55498e-05
0.00029226
3.70435e-05
0.000262475
5.81365e-05
0.000230249
7.87484e-05
0.000196143
9.90206e-05
0.000160465
0.000119539
0.000122927
0.000140896
8.31306e-05
0.000162279
4.2522e-05
0.000181999
4.19575e-06
0.000199774
-3.03713e-05
0.000215106
-5.9835e-05
0.000227559
-8.31868e-05
0.00023686
-0.000100029
0.000242842
-0.000110524
0.000245331
-0.000115238
0.000244513
-0.000115469
0.000241219
-0.000113533
0.00023601
-0.000111343
0.000229146
-0.000110151
0.000220827
-0.000110945
0.000211205
-0.000114407
0.000200393
-0.000120885
0.000188503
-0.000130378
0.000175682
-0.000142505
0.000161969
-0.000156579
0.000147391
-0.000171946
0.000131983
-0.000187931
0.00011579
-0.000203872
9.88692e-05
-0.000219121
8.13028e-05
-0.00023308
6.32016e-05
-0.00024523
4.471e-05
-0.000255127
2.60116e-05
-0.000262384
7.35394e-06
-0.000266694
-1.08669e-05
-0.000267477
-2.86007e-05
-0.000265112
-4.56474e-05
-0.000259935
-6.18273e-05
-0.000251999
-7.6979e-05
-0.000241441
-9.09676e-05
-0.000228459
-0.000103693
-0.000213303
-0.000115097
-0.000196254
-0.000125169
-0.000177608
-0.000133949
-0.000157654
-0.000141524
-0.000136653
-0.000148037
-0.000114771
-0.000153652
-9.21175e-05
-0.000158523
-6.87251e-05
-0.000162735
-4.46119e-05
-0.000166197
-1.99507e-05
-0.000168821
4.96142e-06
-0.000170712
2.99767e-05
-0.000171918
5.5076e-05
-0.000172468
8.0087e-05
-0.000172391
0.000104859
-0.000171692
0.000129275
-0.000170353
0.000153192
-0.000168332
0.000176504
-0.000165523
0.000198854
-0.00016196
0.000220235
-0.000157705
0.000240666
-0.000152424
0.000260632
-0.000146327
0.000276877
0.000296839
-1.40262e-05
0.000388475
1.36731e-05
0.000359736
4.04467e-05
0.000327634
6.58996e-05
0.000293173
8.97728e-05
0.000257175
0.000112008
0.000220234
0.000132772
0.000182635
0.000152504
0.000144233
0.000171713
0.000104679
0.000190189
6.4515e-05
0.00020708
2.55496e-05
0.000222393
-1.09227e-05
0.000236042
-4.39969e-05
0.000247833
-7.25527e-05
0.000257585
-9.57007e-05
0.000265107
-0.000112939
0.000270212
-0.000124234
0.000272698
-0.000130047
0.000272373
-0.000131284
0.000269715
-0.000130093
0.000265171
-0.000128552
0.000258821
-0.000128042
0.000250697
-0.000129658
0.000240805
-0.000134184
0.000229126
-0.000142021
0.000215689
-0.000153179
0.000200575
-0.000167265
0.000183909
-0.000183562
0.000165781
-0.000201205
0.000146347
-0.000219367
0.000125791
-0.000237192
0.000104312
-0.00025385
8.21169e-05
-0.000268629
5.94332e-05
-0.000280921
3.64605e-05
-0.000290156
1.33217e-05
-0.000295887
-9.1368e-06
-0.000298444
-3.05446e-05
-0.000297417
-5.11329e-05
-0.000292645
-7.07256e-05
-0.000284701
-8.90795e-05
-0.000273927
-0.000106033
-0.000260519
-0.000121479
-0.000244752
-0.000135369
-0.000226945
-0.000147737
-0.000207399
-0.000158663
-0.000186391
-0.000168272
-0.000164169
-0.000176732
-0.000140904
-0.000184241
-0.000116676
-0.000190988
-9.14773e-05
-0.000197064
-6.5308e-05
-0.000202358
-3.83598e-05
-0.000206804
-1.08336e-05
-0.000210526
1.72574e-05
-0.000213505
4.59021e-05
-0.000215698
7.4948e-05
-0.000217055
0.000104237
-0.000217493
0.000133597
-0.000216902
0.000162808
-0.00021515
0.000191605
-0.000212097
0.00021968
-0.000207605
0.000246685
-0.000201562
0.000272259
-0.000193887
0.000296036
-0.00018457
0.000317676
-0.000173659
0.000336867
-0.000161073
0.000353013
-0.00014631
0.000364721
-0.000128997
0.000369981
-0.000110163
0.000369652
-8.99944e-05
0.000364243
-6.87144e-05
0.000353877
-4.65638e-05
0.000338793
-2.38167e-05
0.000319332
-7.5113e-07
0.000295933
2.23558e-05
0.000269153
4.52344e-05
0.000239596
6.76923e-05
0.000207791
8.97749e-05
0.000174061
0.000111926
0.000138314
0.000134857
9.99952e-05
0.000158265
5.97228e-05
0.000180376
2.04106e-05
0.000200635
-1.60629e-05
0.00021847
-4.8206e-05
0.000233312
-7.46777e-05
0.000244777
-9.46518e-05
0.000252615
-0.000107867
0.00025664
-0.00011455
0.000256808
-0.000115406
0.000254024
-0.000112685
0.000249131
-0.000108639
0.000242481
-0.000104694
0.000234366
-0.000102036
0.000225005
-0.000101584
0.00021455
-0.000103952
0.000203088
-0.000109423
0.000190663
-0.000117953
0.000177352
-0.000129195
0.000163265
-0.000142491
0.000148374
-0.000157055
0.000132705
-0.000172262
0.000116272
-0.000187439
9.9122e-05
-0.000201971
8.13366e-05
-0.000215294
6.30236e-05
-0.000226917
4.43213e-05
-0.000236424
2.54061e-05
-0.000243469
6.51683e-06
-0.000247805
-1.19568e-05
-0.000249003
-2.99649e-05
-0.000247104
-4.73299e-05
-0.00024257
-6.38827e-05
-0.000235447
-7.9469e-05
-0.000225855
-9.39611e-05
-0.000213967
-0.000107263
-0.000200002
-0.000119318
-0.000184199
-0.000130116
-0.00016681
-0.000139686
-0.000148083
-0.000148115
-0.000128224
-0.000155519
-0.000107367
-0.000162029
-8.56083e-05
-0.000167742
-6.30121e-05
-0.000172659
-3.9695e-05
-0.00017668
-1.59294e-05
-0.000179787
8.06898e-06
-0.000182102
3.22915e-05
-0.000183639
5.66124e-05
-0.00018441