/*--------------------------------*- C++ -*----------------------------------*\
| =========                 |                                                 |
| \\      /  F ield         | OpenFOAM: The Open Source CFD Toolbox           |
|  \\    /   O peration     | Version:  2206                                  |
|   \\  /    A nd           | Website:  www.openfoam.com                      |
|    \\/     M anipulation  |                                                 |
\*---------------------------------------------------------------------------*/
FoamFile
{
    version     2.0;
    format      ascii;
    arch        "LSB;label=32;scalar=64";
    class       volVectorField;
    location    "18.6999";
    object      ddtCorrDdt0(U);
}
// * * * * * * * * * * * * * * * * * * * * * * * * * * * * * * * * * * * * * //

dimensions      [0 1 -2 0 0 0 0];

internalField   nonuniform List<vector> 
4796
(
(-29.5522 118.636 0)
(-33.0723 146.629 0)
(-35.6746 169.916 0)
(-36.8911 185.505 0)
(-35.7102 189.604 0)
(-32.4539 184.066 0)
(-27.8167 171.709 0)
(-22.0822 154.168 0)
(-15.5867 133.319 0)
(-8.79015 111.037 0)
(-2.08673 88.9457 0)
(4.19087 68.2719 0)
(9.81338 49.7357 0)
(15.0274 33.5218 0)
(20.5446 19.1748 0)
(24.8588 6.97771 0)
(28.4846 -1.63787 0)
(31.4388 -7.28904 0)
(33.8768 -10.5109 0)
(36.109 -11.8379 0)
(38.2378 -11.9504 0)
(40.1882 -11.6773 0)
(41.7276 -11.9981 0)
(42.513 -13.9347 0)
(42.1941 -18.3479 0)
(40.5184 -25.7137 0)
(37.4072 -35.9722 0)
(32.9854 -48.508 0)
(27.5142 -62.2773 0)
(21.366 -76.045 0)
(15.0324 -88.6097 0)
(8.33354 -98.9503 0)
(2.46037 -106.307 0)
(-2.47008 -110.642 0)
(-8.23112 -111.26 0)
(-11.8944 -108.847 0)
(-15.2346 -104.432 0)
(-17.765 -98.4278 0)
(-19.4151 -91.2041 0)
(-20.3023 -83.2 0)
(-20.5292 -74.7864 0)
(-20.2179 -66.1541 0)
(-19.5262 -57.461 0)
(-18.5898 -48.8041 0)
(-17.4929 -40.2324 0)
(-16.2881 -31.7716 0)
(-14.9571 -23.4998 0)
(-13.5503 -15.4081 0)
(-13.7563 -6.2522 0)
(-13.5681 6.16881 0)
(-13.5425 20.1341 0)
(-13.4764 34.5562 0)
(-13.5325 49.1818 0)
(-13.6901 63.7162 0)
(-13.8271 77.6421 0)
(-13.8617 90.3606 0)
(-13.7391 101.227 0)
(-13.4102 109.581 0)
(-12.7888 114.671 0)
(-11.6856 115.253 0)
(-10.1802 112.607 0)
(-8.36195 107.317 0)
(-6.25818 99.8053 0)
(-3.90609 90.5828 0)
(-1.37972 80.217 0)
(1.25121 69.277 0)
(3.92017 58.2852 0)
(6.57272 47.681 0)
(9.16272 37.7722 0)
(11.6639 28.6973 0)
(14.2071 20.3973 0)
(16.9257 12.6757 0)
(19.244 5.6474 0)
(21.2394 -0.375211 0)
(22.774 -5.86367 0)
(23.6871 -11.3038 0)
(23.9452 -17.0968 0)
(23.5159 -23.528 0)
(22.4091 -30.6973 0)
(20.6857 -38.5111 0)
(18.4408 -46.7089 0)
(15.8011 -54.914 0)
(12.899 -62.704 0)
(9.85804 -69.6703 0)
(6.82688 -75.4652 0)
(3.86827 -79.8775 0)
(0.908615 -82.6379 0)
(-1.29868 -83.2306 0)
(-3.85712 -82.1984 0)
(-5.72216 -79.9785 0)
(-7.41723 -76.5738 0)
(-8.82574 -72.1006 0)
(-9.9284 -66.7258 0)
(-10.7628 -60.5885 0)
(-11.3404 -53.8311 0)
(-11.6728 -46.6143 0)
(-11.7837 -39.0803 0)
(-11.7052 -31.3861 0)
(-11.4577 -23.6998 0)
(-10.9488 -16.1864 0)
(-10.8993 -8.64131 0)
(-11.1841 0.884134 0)
(-10.9501 11.4349 0)
(-10.8169 22.0181 0)
(-10.5053 32.3393 0)
(-10.1461 42.2344 0)
(-9.77173 51.5174 0)
(-9.35276 59.979 0)
(-8.8758 67.3944 0)
(-8.33045 73.5262 0)
(-7.70268 78.1309 0)
(-6.961 80.8931 0)
(-6.02399 81.2066 0)
(-4.92071 79.7916 0)
(-3.67807 76.9214 0)
(-2.29628 72.7684 0)
(-0.782527 67.5489 0)
(0.839327 61.5102 0)
(2.53781 54.9013 0)
(4.27255 47.9616 0)
(6.00052 40.9043 0)
(7.67635 33.8956 0)
(9.24271 27.0421 0)
(10.6309 20.3973 0)
(11.9117 13.9137 0)
(13.355 7.29206 0)
(14.347 0.383313 0)
(15.0126 -6.35251 0)
(15.3115 -13.0466 0)
(15.1347 -19.7536 0)
(14.5428 -26.4593 0)
(13.5854 -33.1071 0)
(12.315 -39.5784 0)
(10.7996 -45.7092 0)
(9.11148 -51.3128 0)
(7.32053 -56.2053 0)
(5.49078 -60.2233 0)
(-39.1263 122.242 0)
(-41.4476 149.267 0)
(-42.5106 171.054 0)
(-41.6966 184.512 0)
(-38.1054 185.726 0)
(-32.7557 178.58 0)
(-26.15 164.874 0)
(-18.717 146.44 0)
(-10.8897 125.211 0)
(-3.15238 103.018 0)
(4.1073 81.3844 0)
(10.6291 61.3836 0)
(16.4244 43.5272 0)
(22.081 27.6916 0)
(27.1505 13.7061 0)
(30.7486 2.80369 0)
(33.6593 -4.82023 0)
(35.7623 -9.84475 0)
(37.4272 -12.7263 0)
(38.9633 -13.9355 0)
(40.5207 -13.9848 0)
(42.0907 -13.5019 0)
(43.4771 -13.2922 0)
(44.335 -14.2865 0)
(44.261 -17.3748 0)
(42.9083 -23.175 0)
(40.1 -31.8378 0)
(35.8529 -42.9679 0)
(30.3955 -55.6851 0)
(24.1202 -68.82 0)
(17.4232 -81.1758 0)
(10.6826 -91.8169 0)
(3.51753 -99.8547 0)
(-0.573735 -104.588 0)
(-7.53877 -105.929 0)
(-11.3281 -104.472 0)
(-14.897 -101.004 0)
(-17.7543 -95.8907 0)
(-19.7809 -89.5538 0)
(-21.0936 -82.3333 0)
(-21.7894 -74.548 0)
(-21.9801 -66.4222 0)
(-21.774 -58.1105 0)
(-21.2711 -49.7217 0)
(-20.5667 -41.3248 0)
(-19.7586 -32.9464 0)
(-18.8471 -24.584 0)
(-18.0434 -16.1023 0)
(-18.4716 -6.22301 0)
(-18.3262 6.31802 0)
(-18.464 20.1099 0)
(-18.5023 34.5185 0)
(-18.4261 49.1789 0)
(-18.29 63.671 0)
(-18.0173 77.4691 0)
(-17.5396 89.9901 0)
(-16.8173 100.61 0)
(-15.8169 108.651 0)
(-14.443 113.308 0)
(-12.5473 113.336 0)
(-10.3 110.351 0)
(-7.76909 104.741 0)
(-5.01161 96.9683 0)
(-2.097 87.567 0)
(0.879271 77.1061 0)
(3.83964 66.1456 0)
(6.72571 55.1981 0)
(9.49399 44.6798 0)
(12.1159 34.8634 0)
(14.6422 25.8458 0)
(17.2802 17.5229 0)
(19.896 9.8538 0)
(22.033 3.23517 0)
(23.9516 -2.27709 0)
(25.3705 -7.17962 0)
(26.2179 -11.9337 0)
(26.4364 -16.977 0)
(25.9702 -22.6385 0)
(24.8122 -29.07 0)
(23.0075 -36.2267 0)
(20.6448 -43.8858 0)
(17.8431 -51.6959 0)
(14.7373 -59.2399 0)
(11.4628 -66.1049 0)
(8.14387 -71.9286 0)
(4.87581 -76.4349 0)
(1.72939 -79.406 0)
(-1.13365 -80.4369 0)
(-3.62244 -79.6991 0)
(-5.82994 -77.7771 0)
(-7.79479 -74.6835 0)
(-9.4723 -70.5341 0)
(-10.8531 -65.4771 0)
(-11.9539 -59.648 0)
(-12.7847 -53.1857 0)
(-13.3601 -46.2418 0)
(-13.7064 -38.9518 0)
(-13.8556 -31.4585 0)
(-13.8106 -23.9069 0)
(-13.5406 -16.4068 0)
(-13.7612 -8.57995 0)
(-13.9872 1.01813 0)
(-13.8288 11.3192 0)
(-13.7303 21.7147 0)
(-13.3979 31.9302 0)
(-12.936 41.7448 0)
(-12.3852 50.9496 0)
(-11.7298 59.3252 0)
(-10.9651 66.6452 0)
(-10.0903 72.674 0)
(-9.10057 77.1526 0)
(-7.96279 79.7453 0)
(-6.61069 79.8288 0)
(-5.11225 78.2685 0)
(-3.48932 75.2478 0)
(-1.75291 70.9597 0)
(0.0786293 65.6293 0)
(1.97267 59.5094 0)
(3.89513 52.8612 0)
(5.80852 45.931 0)
(7.67166 38.9281 0)
(9.44526 32.0189 0)
(11.0904 25.3062 0)
(12.5753 18.8049 0)
(14.0298 12.4089 0)
(15.5247 5.89444 0)
(16.4645 -0.608952 0)
(17.1735 -6.87247 0)
(17.4395 -13.0782 0)
(17.2318 -19.2967 0)
(16.5895 -25.5484 0)
(15.5464 -31.798 0)
(14.1553 -37.941 0)
(12.4856 -43.821 0)
(10.6122 -49.2532 0)
(8.60995 -54.0498 0)
(6.54701 -58.0397 0)
(-48.1535 124.673 0)
(-49.1995 150.278 0)
(-48.5482 170.145 0)
(-45.3845 180.663 0)
(-39.4726 179.534 0)
(-32.0821 170.823 0)
(-23.634 156.045 0)
(-14.6649 137.102 0)
(-5.69461 115.92 0)
(2.79069 94.2361 0)
(10.4523 73.4114 0)
(17.1594 54.2927 0)
(23.2358 37.1567 0)
(28.9204 21.8631 0)
(33.0828 9.02481 0)
(36.0933 -0.453036 0)
(38.1685 -7.11807 0)
(39.4703 -11.5199 0)
(40.3921 -14.1117 0)
(41.2329 -15.3026 0)
(42.1972 -15.4541 0)
(43.344 -14.9887 0)
(44.5269 -14.512 0)
(45.42 -14.8111 0)
(45.5945 -16.7468 0)
(44.6304 -21.0445 0)
(42.2336 -28.0624 0)
(38.3272 -37.643 0)
(33.0626 -49.1217 0)
(26.7783 -61.4512 0)
(19.9229 -73.4524 0)
(12.899 -84.1262 0)
(5.93611 -92.6735 0)
(-0.527194 -98.0838 0)
(-6.0609 -100.403 0)
(-10.6075 -99.8521 0)
(-14.4733 -97.2617 0)
(-17.632 -92.9864 0)
(-20.0571 -87.443 0)
(-21.8104 -80.9463 0)
(-22.9722 -73.7805 0)
(-23.6364 -66.1643 0)
(-23.8978 -58.2567 0)
(-23.8499 -50.1646 0)
(-23.5933 -41.9505 0)
(-23.2204 -33.6332 0)
(-22.741 -25.1773 0)
(-22.4488 -16.3387 0)
(-23.0545 -5.93879 0)
(-23.0575 6.57709 0)
(-23.3043 20.1744 0)
(-23.3545 34.4416 0)
(-23.1478 48.9498 0)
(-22.7305 63.2357 0)
(-22.0472 76.7723 0)
(-21.0499 88.9826 0)
(-19.7145 99.2627 0)
(-18.0183 106.924 0)
(-15.8538 111.017 0)
(-13.163 110.605 0)
(-10.1763 107.281 0)
(-6.95307 101.403 0)
(-3.5817 93.457 0)
(-0.148652 83.9879 0)
(3.24757 73.5627 0)
(6.51772 62.7251 0)
(9.59423 51.9492 0)
(12.4414 41.6069 0)
(15.0838 31.9382 0)
(17.6486 22.9885 0)
(20.2992 14.6763 0)
(22.6549 7.1911 0)
(24.6868 1.01343 0)
(26.447 -4.04448 0)
(27.7417 -8.40006 0)
(28.523 -12.5044 0)
(28.7084 -16.8174 0)
(28.2219 -21.7058 0)
(27.0348 -27.3751 0)
(25.1714 -33.8372 0)
(22.7077 -40.9158 0)
(19.7604 -48.2879 0)
(16.4679 -55.5468 0)
(12.9721 -62.2713 0)
(9.40339 -68.0853 0)
(5.86989 -72.6918 0)
(2.46773 -75.8521 0)
(-0.666729 -77.298 0)
(-3.45076 -76.9024 0)
(-5.94147 -75.2721 0)
(-8.17095 -72.4901 0)
(-10.1161 -68.6694 0)
(-11.7664 -63.9362 0)
(-13.1303 -58.4205 0)
(-14.2177 -52.2577 0)
(-15.0443 -45.5909 0)
(-15.6346 -38.5496 0)
(-16.0147 -31.2653 0)
(-16.1782 -23.8624 0)
(-16.1617 -16.3876 0)
(-16.5923 -8.36726 0)
(-16.8112 1.17127 0)
(-16.7342 11.2376 0)
(-16.6375 21.4138 0)
(-16.2653 31.4467 0)
(-15.6992 41.0997 0)
(-14.9733 50.1517 0)
(-14.08 58.3757 0)
(-13.0231 65.5441 0)
(-11.8097 71.4229 0)
(-10.4453 75.7424 0)
(-8.89318 78.1106 0)
(-7.11641 78.0036 0)
(-5.21367 76.3038 0)
(-3.20269 73.1609 0)
(-1.10719 68.7738 0)
(1.04137 63.3785 0)
(3.20334 57.2346 0)
(5.33951 50.6027 0)
(7.41165 43.7292 0)
(9.38877 36.827 0)
(11.2426 30.0501 0)
(12.9425 23.4785 0)
(14.5152 17.1042 0)
(16.1095 10.795 0)
(17.5351 4.47849 0)
(18.5096 -1.58177 0)
(19.216 -7.38513 0)
(19.4611 -13.0956 0)
(19.2393 -18.8053 0)
(18.5644 -24.5691 0)
(17.4562 -30.3773 0)
(15.9622 -36.1468 0)
(14.1498 -41.736 0)
(12.0974 -46.9658 0)
(9.88673 -51.6446 0)
(7.5934 -55.5915 0)
(-56.2956 125.839 0)
(-55.9033 149.532 0)
(-53.4141 166.905 0)
(-47.8955 174.112 0)
(-39.8262 171.034 0)
(-30.4888 160.925 0)
(-20.388 145.41 0)
(-10.1031 126.374 0)
(-0.213438 105.669 0)
(8.82973 84.881 0)
(16.7761 65.1424 0)
(23.7011 47.0609 0)
(29.9169 30.7586 0)
(35.0011 16.5476 0)
(38.2995 5.31975 0)
(40.5872 -2.82564 0)
(41.8466 -8.55244 0)
(42.4262 -12.3634 0)
(42.6762 -14.7147 0)
(42.8758 -15.9604 0)
(43.2581 -16.3484 0)
(43.9482 -16.11 0)
(44.8845 -15.6098 0)
(45.7827 -15.4716 0)
(46.204 -16.4862 0)
(45.6789 -19.4068 0)
(43.8086 -24.7727 0)
(40.386 -32.6883 0)
(35.4583 -42.7392 0)
(29.3085 -54.0672 0)
(22.3722 -65.5694 0)
(15.1069 -76.1494 0)
(7.89994 -84.8937 0)
(1.13298 -91.1044 0)
(-4.86077 -94.5308 0)
(-9.86664 -94.9919 0)
(-14.0158 -93.1421 0)
(-17.4937 -89.6564 0)
(-20.3017 -84.8657 0)
(-22.4744 -79.064 0)
(-24.0788 -72.5013 0)
(-25.1975 -65.3867 0)
(-25.9198 -57.8798 0)
(-26.3353 -50.085 0)
(-26.5354 -42.0561 0)
(-26.5925 -33.8099 0)
(-26.5448 -25.2887 0)
(-26.7169 -16.172 0)
(-27.4745 -5.47954 0)
(-27.6346 6.92411 0)
(-27.9408 20.2912 0)
(-27.9555 34.2862 0)
(-27.6062 48.4833 0)
(-26.9197 62.4144 0)
(-25.846 75.5609 0)
(-24.3424 87.3497 0)
(-22.383 97.1711 0)
(-19.9579 104.347 0)
(-16.9778 107.808 0)
(-13.4966 107.014 0)
(-9.78109 103.409 0)
(-5.90109 97.3609 0)
(-1.96988 89.3526 0)
(1.90775 79.9275 0)
(5.63349 69.6485 0)
(9.1354 59.0372 0)
(12.3639 48.5368 0)
(15.3051 38.4711 0)
(17.9826 29.0023 0)
(20.5748 20.1523 0)
(23.1437 11.9486 0)
(25.2077 4.76543 0)
(27.1064 -1.013 0)
(28.6784 -5.65619 0)
(29.8448 -9.5139 0)
(30.5601 -13.0199 0)
(30.725 -16.6373 0)
(30.2467 -20.7613 0)
(29.0703 -25.6491 0)
(27.1931 -31.3748 0)
(24.6717 -37.8193 0)
(21.6132 -44.6994 0)
(18.1571 -51.6268 0)
(14.4543 -58.1804 0)
(10.6482 -63.9677 0)
(6.8616 -68.6626 0)
(3.20027 -72.0184 0)
(-0.21939 -73.8365 0)
(-3.29414 -73.7907 0)
(-6.05066 -72.4626 0)
(-8.54265 -69.9973 0)
(-10.7525 -66.5036 0)
(-12.6672 -62.0959 0)
(-14.2925 -56.8981 0)
(-15.6372 -51.0405 0)
(-16.7152 -44.6591 0)
(-17.5483 -37.8791 0)
(-18.1573 -30.817 0)
(-18.5327 -23.5729 0)
(-18.7714 -16.1352 0)
(-19.3702 -8.0125 0)
(-19.6068 1.37583 0)
(-19.607 11.1781 0)
(-19.4954 21.0915 0)
(-19.0667 30.8768 0)
(-18.3874 40.2948 0)
(-17.4819 49.1211 0)
(-16.3482 57.1274 0)
(-14.9981 64.0859 0)
(-13.4464 69.7682 0)
(-11.7048 73.8934 0)
(-9.73463 75.9946 0)
(-7.53571 75.7209 0)
(-5.22453 73.8857 0)
(-2.82338 70.644 0)
(-0.370917 66.2014 0)
(2.08857 60.7982 0)
(4.50696 54.6932 0)
(6.84161 48.1465 0)
(9.05601 41.3953 0)
(11.1226 34.6362 0)
(13.0278 28.0119 0)
(14.7721 21.588 0)
(16.43 15.3266 0)
(18.0847 9.12961 0)
(19.403 3.08995 0)
(20.4178 -2.53878 0)
(21.1047 -7.88926 0)
(21.3404 -13.1036 0)
(21.1168 -18.2948 0)
(20.425 -23.5473 0)
(19.2737 -28.8788 0)
(17.702 -34.2325 0)
(15.7726 -39.4865 0)
(13.5639 -44.4724 0)
(11.1614 -48.999 0)
(8.64844 -52.8777 0)
(-63.2406 125.589 0)
(-61.4482 146.926 0)
(-57.0768 161.449 0)
(-49.1525 165.027 0)
(-39.1761 160.289 0)
(-28.0754 149.092 0)
(-16.5365 133.224 0)
(-5.18847 114.516 0)
(5.38444 94.6896 0)
(14.8014 75.1115 0)
(22.9585 56.6714 0)
(30.0303 39.777 0)
(35.9299 24.7052 0)
(40.0683 12.151 0)
(42.6223 2.61319 0)
(44.0664 -4.31693 0)
(44.5807 -9.17995 0)
(44.5339 -12.4649 0)
(44.1974 -14.6119 0)
(43.8847 -15.9555 0)
(43.7737 -16.6569 0)
(43.9827 -16.8028 0)
(44.5778 -16.5602 0)
(45.3911 -16.2877 0)
(46.036 -16.6223 0)
(45.9859 -18.3593 0)
(44.7627 -22.1323 0)
(42.0191 -28.2886 0)
(37.6524 -36.7076 0)
(31.8379 -46.7805 0)
(24.972 -57.5467 0)
(17.5558 -67.9175 0)
(10.0793 -76.8956 0)
(2.96217 -83.7443 0)
(-3.48106 -88.075 0)
(-9.00072 -89.6834 0)
(-13.5372 -88.6365 0)
(-17.3431 -85.9279 0)
(-20.5148 -81.8557 0)
(-23.0853 -76.7107 0)
(-25.1122 -70.7272 0)
(-26.6694 -64.0998 0)
(-27.8389 -56.9849 0)
(-28.7053 -49.4887 0)
(-29.3479 -41.661 0)
(-29.8218 -33.5093 0)
(-30.1866 -24.9564 0)
(-30.762 -15.6513 0)
(-31.6415 -4.84428 0)
(-31.9459 7.35509 0)
(-32.2829 20.4077 0)
(-32.2391 34.0225 0)
(-31.7462 47.7911 0)
(-30.7979 61.2432 0)
(-29.3102 73.847 0)
(-27.2455 85.0581 0)
(-24.6395 94.3072 0)
(-21.5156 100.903 0)
(-17.7766 103.721 0)
(-13.5676 102.592 0)
(-9.18248 98.781 0)
(-4.71185 92.6594 0)
(-0.282394 84.7117 0)
(3.98788 75.4689 0)
(7.99675 65.4606 0)
(11.6773 55.1764 0)
(15.0009 45.0194 0)
(17.9748 35.266 0)
(20.6876 26.0493 0)
(23.2963 17.3762 0)
(25.6587 9.40514 0)
(27.5302 2.60899 0)
(29.2325 -2.81906 0)
(30.6031 -7.09669 0)
(31.6341 -10.5193 0)
(32.2796 -13.4919 0)
(32.4351 -16.4644 0)
(31.993 -19.8495 0)
(30.8704 -23.9501 0)
(29.0329 -28.904 0)
(26.5104 -34.6579 0)
(23.3936 -40.9818 0)
(19.8175 -47.5182 0)
(15.9385 -53.8499 0)
(11.9121 -59.5716 0)
(7.87709 -64.3404 0)
(3.95038 -67.8891 0)
(0.239443 -70.0038 0)
(-3.13092 -70.3961 0)
(-6.15258 -69.3619 0)
(-8.90327 -67.2121 0)
(-11.3738 -64.0436 0)
(-13.5489 -59.9632 0)
(-15.4311 -55.0871 0)
(-17.0278 -49.5408 0)
(-18.3511 -43.4535 0)
(-19.4208 -36.9452 0)
(-20.2524 -30.1159 0)
(-20.8415 -23.0401 0)
(-21.3232 -15.6611 0)
(-22.0569 -7.52965 0)
(-22.3213 1.63244 0)
(-22.3848 11.1285 0)
(-22.2435 20.729 0)
(-21.7453 30.2035 0)
(-20.9472 39.3175 0)
(-19.8653 47.851 0)
(-18.4983 55.5806 0)
(-16.8594 62.2793 0)
(-14.9675 67.7119 0)
(-12.8358 71.5969 0)
(-10.4313 73.4036 0)
(-7.80506 72.9706 0)
(-5.09107 71.0245 0)
(-2.3212 67.7239 0)
(0.453172 63.2748 0)
(3.17959 57.9178 0)
(5.80969 51.91 0)
(8.30468 45.5036 0)
(10.6363 38.9259 0)
(12.7873 32.3606 0)
(14.7459 25.9246 0)
(16.534 19.6544 0)
(18.2514 13.506 0)
(19.8982 7.47038 0)
(21.1207 1.75417 0)
(22.1521 -3.4791 0)
(22.8161 -8.39076 0)
(23.0537 -13.1133 0)
(22.842 -17.7805 0)
(22.1527 -22.5018 0)
(20.9826 -27.3239 0)
(19.3597 -32.2207 0)
(17.3395 -37.0951 0)
(14.9982 -41.7939 0)
(12.424 -46.1311 0)
(9.70796 -49.9157 0)
(-69.0568 123.942 0)
(-65.8873 142.54 0)
(-59.3409 153.259 0)
(-49.2727 153.886 0)
(-37.5534 147.543 0)
(-24.9119 135.592 0)
(-12.1703 119.768 0)
(-0.0181475 101.802 0)
(11.0081 83.2116 0)
(20.6386 65.1096 0)
(28.8871 48.1511 0)
(35.7355 32.7355 0)
(40.8532 19.4344 0)
(44.0008 8.81469 0)
(45.7502 0.846959 0)
(46.4049 -4.96529 0)
(46.2468 -9.07519 0)
(45.6839 -11.954 0)
(44.9712 -14.0009 0)
(44.2777 -15.4645 0)
(43.7701 -16.4619 0)
(43.5793 -17.0273 0)
(43.7718 -17.1848 0)
(44.3518 -17.0981 0)
(45.0609 -17.1487 0)
(45.4424 -17.9737 0)
(44.917 -20.3271 0)
(43.0198 -24.7212 0)
(39.4732 -31.3285 0)
(34.2846 -39.853 0)
(27.7465 -49.5615 0)
(20.3473 -59.4573 0)
(12.6424 -68.5138 0)
(5.13567 -75.8942 0)
(-1.79916 -81.066 0)
(-7.89242 -83.7516 0)
(-12.952 -83.7676 0)
(-17.1296 -81.8035 0)
(-20.6705 -78.4274 0)
(-23.6315 -73.9078 0)
(-26.0655 -68.4802 0)
(-28.0428 -62.3269 0)
(-29.6371 -55.5984 0)
(-30.9272 -48.4038 0)
(-31.9832 -40.7936 0)
(-32.8469 -32.7619 0)
(-33.5903 -24.2195 0)
(-34.5032 -14.8257 0)
(-35.4791 -4.05901 0)
(-35.9083 7.84492 0)
(-36.2537 20.5072 0)
(-36.1288 33.6517 0)
(-35.4502 46.8601 0)
(-34.1528 59.6505 0)
(-32.2157 71.5583 0)
(-29.6455 82.0971 0)
(-26.4668 90.7199 0)
(-22.7031 96.6966 0)
(-18.2654 98.8191 0)
(-13.414 97.4325 0)
(-8.44377 93.4909 0)
(-3.47042 87.3911 0)
(1.37261 79.6092 0)
(5.95984 70.6552 0)
(10.1955 61.0316 0)
(14.0216 51.1783 0)
(17.4163 41.444 0)
(20.4178 32.059 0)
(23.1381 23.1193 0)
(25.6797 14.6914 0)
(27.7993 7.06451 0)
(29.5176 0.690062 0)
(31.0056 -4.39643 0)
(32.182 -8.34457 0)
(33.0767 -11.3995 0)
(33.6497 -13.9187 0)
(33.8039 -16.3169 0)
(33.4227 -19.0076 0)
(32.3965 -22.3303 0)
(30.6549 -26.4862 0)
(28.194 -31.4958 0)
(25.0812 -37.1937 0)
(21.4403 -43.2658 0)
(17.4275 -49.3135 0)
(13.2086 -54.9253 0)
(8.93847 -59.7327 0)
(4.74763 -63.4452 0)
(0.747815 -65.8485 0)
(-2.92708 -66.6798 0)
(-6.22866 -65.9617 0)
(-9.23729 -64.1358 0)
(-11.9628 -61.2937 0)
(-14.3928 -57.5439 0)
(-16.5248 -52.9946 0)
(-18.3648 -47.7661 0)
(-19.924 -41.9816 0)
(-21.2202 -35.754 0)
(-22.2663 -29.1695 0)
(-23.0663 -22.2741 0)
(-23.765 -14.9866 0)
(-24.6034 -6.94001 0)
(-24.8964 1.92761 0)
(-25.0075 11.0727 0)
(-24.8334 20.3123 0)
(-24.2715 29.4261 0)
(-23.3642 38.1854 0)
(-22.1097 46.3654 0)
(-20.4967 53.7429 0)
(-18.5491 60.1084 0)
(-16.3028 65.236 0)
(-13.7902 68.828 0)
(-10.9719 70.3248 0)
(-7.94423 69.7588 0)
(-4.85325 67.7398 0)
(-1.74152 64.4292 0)
(1.33133 60.035 0)
(4.30309 54.7928 0)
(7.12071 48.9477 0)
(9.74379 42.7364 0)
(12.1511 36.3722 0)
(14.3381 30.0205 0)
(16.3149 23.7811 0)
(18.1373 17.6743 0)
(19.9036 11.6679 0)
(21.4613 5.84713 0)
(22.6788 0.48121 0)
(23.6837 -4.39277 0)
(24.3269 -8.8903 0)
(24.5739 -13.1374 0)
(24.3854 -17.284 0)
(23.7184 -21.4612 0)
(22.5561 -25.7464 0)
(20.9125 -30.1468 0)
(18.8324 -34.595 0)
(16.3878 -38.9595 0)
(13.6684 -43.0656 0)
(10.7702 -46.7216 0)
(-74.0348 120.949 0)
(-69.271 136.252 0)
(-60.244 142.464 0)
(-48.3548 140.777 0)
(-34.9438 133.014 0)
(-20.9244 120.669 0)
(-7.23648 105.319 0)
(5.43523 88.5036 0)
(16.6701 71.4835 0)
(26.3073 55.1008 0)
(34.2856 39.8926 0)
(40.3723 26.4166 0)
(44.4111 15.2649 0)
(46.6222 6.56087 0)
(47.5298 -0.0113843 0)
(47.4636 -4.86737 0)
(46.8648 -8.41648 0)
(45.9934 -11.0419 0)
(45.0263 -13.0372 0)
(44.0895 -14.6053 0)
(43.2979 -15.8569 0)
(42.7752 -16.8141 0)
(42.5952 -17.4327 0)
(42.842 -17.7227 0)
(43.4255 -17.843 0)
(44.0293 -18.1966 0)
(44.144 -19.4149 0)
(43.1627 -22.1921 0)
(40.6493 -26.9213 0)
(36.4024 -33.6353 0)
(30.535 -41.9224 0)
(23.4394 -50.9792 0)
(15.6753 -59.8244 0)
(7.82761 -67.5409 0)
(0.37348 -73.4424 0)
(-6.34484 -77.1131 0)
(-12.0873 -78.3775 0)
(-16.7704 -77.2088 0)
(-20.7125 -74.5539 0)
(-24.0713 -70.6608 0)
(-26.908 -65.7775 0)
(-29.2884 -60.093 0)
(-31.2824 -53.7521 0)
(-32.9622 -46.8658 0)
(-34.3935 -39.4894 0)
(-35.6129 -31.6109 0)
(-36.6963 -23.1287 0)
(-37.8751 -13.7516 0)
(-38.9199 -3.15785 0)
(-39.442 8.36886 0)
(-39.7501 20.5547 0)
(-39.4703 33.0934 0)
(-38.5171 45.5727 0)
(-36.8965 57.6117 0)
(-34.5723 68.7714 0)
(-31.5476 78.5724 0)
(-27.8558 86.4826 0)
(-23.5158 91.7778 0)
(-18.4604 93.221 0)
(-13.0766 91.6313 0)
(-7.62453 87.642 0)
(-2.24911 81.6598 0)
(2.90872 74.1452 0)
(7.72719 65.5806 0)
(12.1192 56.4229 0)
(16.0416 47.0691 0)
(19.4935 37.8159 0)
(22.5241 28.8446 0)
(25.2502 20.251 0)
(27.6948 12.1768 0)
(29.5675 4.97711 0)
(31.1218 -0.993696 0)
(32.382 -5.76474 0)
(33.3638 -9.42717 0)
(34.1224 -12.1714 0)
(34.6287 -14.3053 0)
(34.793 -16.2084 0)
(34.4949 -18.2726 0)
(33.6043 -20.8456 0)
(32.0147 -24.1893 0)
(29.6848 -28.4078 0)
(26.6503 -33.41 0)
(23.0132 -38.9352 0)
(18.9239 -44.6171 0)
(14.5539 -50.05 0)
(10.0715 -54.8509 0)
(5.62658 -58.7011 0)
(1.34354 -61.3575 0)
(-2.6528 -62.628 0)
(-6.25326 -62.2566 0)
(-9.51727 -60.7681 0)
(-12.4932 -58.2596 0)
(-15.1711 -54.8443 0)
(-17.5453 -50.6299 0)
(-19.6183 -45.7277 0)
(-21.4009 -40.2556 0)
(-22.9105 -34.3182 0)
(-24.1586 -27.9901 0)
(-25.1598 -21.2946 0)
(-26.0491 -14.1391 0)
(-26.9627 -6.26806 0)
(-27.2883 2.25104 0)
(-27.4447 11.0165 0)
(-27.2391 19.8618 0)
(-26.5977 28.558 0)
(-25.5389 36.8781 0)
(-24.0689 44.6182 0)
(-22.2074 51.5809 0)
(-19.9798 57.5694 0)
(-17.4233 62.3648 0)
(-14.5659 65.644 0)
(-11.3687 66.8061 0)
(-7.98542 66.1351 0)
(-4.55892 64.0719 0)
(-1.147 60.7918 0)
(2.1837 56.5025 0)
(5.36495 51.4315 0)
(8.34173 45.812 0)
(11.076 39.8618 0)
(13.5498 33.768 0)
(15.7636 27.6684 0)
(17.7441 21.6413 0)
(19.5799 15.6962 0)
(21.3307 9.84452 0)
(22.7659 4.26725 0)
(23.9875 -0.766867 0)
(24.9669 -5.28997 0)
(25.607 -9.38815 0)
(25.8772 -13.1815 0)
(25.7259 -16.8216 0)
(25.1017 -20.4517 0)
(23.9733 -24.1781 0)
(22.339 -28.0445 0)
(20.2315 -32.0202 0)
(17.7165 -36.0018 0)
(14.8821 -39.8301 0)
(11.8273 -43.3158 0)
(-78.6575 116.454 0)
(-71.3371 127.24 0)
(-59.8413 129.56 0)
(-46.0891 125.649 0)
(-30.9525 116.791 0)
(-15.7064 104.57 0)
(-1.44566 90.1984 0)
(11.3304 74.929 0)
(22.4063 59.8138 0)
(31.5914 45.4663 0)
(38.6773 32.436 0)
(43.5451 21.3062 0)
(46.4059 12.3278 0)
(47.7024 5.30836 0)
(47.9018 -0.101635 0)
(47.4067 -4.24229 0)
(46.5277 -7.42028 0)
(45.4791 -9.89286 0)
(44.394 -11.8737 0)
(43.3525 -13.5315 0)
(42.4173 -14.974 0)
(41.6676 -16.2354 0)
(41.1848 -17.2758 0)
(41.0492 -18.0198 0)
(41.3313 -18.4683 0)
(41.8865 -18.7775 0)
(42.3711 -19.3537 0)
(42.2375 -20.8053 0)
(40.8478 -23.7559 0)
(37.8473 -28.5315 0)
(33.0372 -35.0295 0)
(26.651 -42.7933 0)
(19.1534 -51.002 0)
(11.1502 -58.7289 0)
(3.22965 -65.1626 0)
(-4.14104 -69.7212 0)
(-10.6522 -72.0997 0)
(-16.0883 -72.1451 0)
(-20.5378 -70.2025 0)
(-24.3295 -66.9569 0)
(-27.5793 -62.628 0)
(-30.3556 -57.4184 0)
(-32.7297 -51.4786 0)
(-34.7693 -44.9171 0)
(-36.5363 -37.7947 0)
(-38.0724 -30.1029 0)
(-39.4513 -21.7417 0)
(-40.8282 -12.4858 0)
(-41.889 -2.1852 0)
(-42.4595 8.87219 0)
(-42.6428 20.4545 0)
(-42.148 32.2618 0)
(-40.9557 43.9716 0)
(-39.0345 55.2013 0)
(-36.3581 65.5393 0)
(-32.9392 74.5452 0)
(-28.8089 81.686 0)
(-23.9587 86.2248 0)
(-18.3894 87.0438 0)
(-12.6074 85.3152 0)
(-6.80106 81.3587 0)
(-1.13971 75.5854 0)
(4.23063 68.4284 0)
(9.19405 60.3303 0)
(13.679 51.705 0)
(17.6565 42.8948 0)
(21.1392 34.1501 0)
(24.1999 25.6253 0)
(26.9227 17.4329 0)
(29.2324 9.80837 0)
(30.9347 3.11481 0)
(32.3334 -2.4394 0)
(33.3872 -6.89273 0)
(34.18 -10.3032 0)
(34.7824 -12.8166 0)
(35.1949 -14.6684 0)
(35.3599 -16.1684 0)
(35.1609 -17.6779 0)
(34.4384 -19.5563 0)
(33.0539 -22.093 0)
(30.9269 -25.4748 0)
(28.0565 -29.7088 0)
(24.5121 -34.6035 0)
(20.4213 -39.8276 0)
(15.9569 -44.995 0)
(11.3022 -49.7185 0)
(6.62387 -53.6569 0)
(2.06399 -56.5393 0)
(-2.25246 -58.1601 0)
(-6.17957 -58.2775 0)
(-9.70931 -57.1166 0)
(-12.9334 -54.9502 0)
(-15.8521 -51.8768 0)
(-18.4576 -48.0051 0)
(-20.7531 -43.4412 0)
(-22.7458 -38.292 0)
(-24.4524 -32.6552 0)
(-25.888 -26.5956 0)
(-27.0778 -20.1224 0)
(-28.1373 -13.1461 0)
(-29.086 -5.51803 0)
(-29.4831 2.616 0)
(-29.6336 10.9555 0)
(-29.3421 19.325 0)
(-28.5765 27.522 0)
(-27.3677 35.3527 0)
(-25.7176 42.6242 0)
(-23.6405 49.1461 0)
(-21.1672 54.7253 0)
(-18.3364 59.1454 0)
(-15.1651 62.0775 0)
(-11.6247 62.9001 0)
(-7.94011 62.1449 0)
(-4.22939 60.0731 0)
(-0.567861 56.8693 0)
(2.96918 52.7353 0)
(6.31091 47.8889 0)
(9.40395 42.5449 0)
(12.2153 36.8982 0)
(14.7322 31.1098 0)
(16.9659 25.2932 0)
(18.9605 19.4999 0)
(20.8113 13.7391 0)
(22.5149 8.08658 0)
(23.8582 2.78226 0)
(25.0514 -1.96727 0)
(25.9835 -6.18602 0)
(26.6209 -9.91812 0)
(26.9282 -13.2739 0)
(26.8366 -16.4128 0)
(26.2804 -19.4949 0)
(25.2131 -22.6491 0)
(23.6181 -25.952 0)
(21.5152 -29.4121 0)
(18.9629 -32.9601 0)
(16.0474 -36.4596 0)
(12.869 -39.7318 0)
(-82.1058 109.256 0)
(-70.75 114.905 0)
(-56.6776 114.279 0)
(-40.9875 108.245 0)
(-24.4784 98.7479 0)
(-8.52532 87.5908 0)
(5.49863 75.06 0)
(17.6266 61.7946 0)
(27.9083 48.8837 0)
(35.8827 36.9272 0)
(41.4726 26.4327 0)
(44.9409 17.6704 0)
(46.7185 10.5678 0)
(47.2798 4.87338 0)
(47.0351 0.321081 0)
(46.304 -3.3233 0)
(45.3207 -6.25927 0)
(44.2437 -8.65593 0)
(43.168 -10.6595 0)
(42.1418 -12.3962 0)
(41.1893 -13.9648 0)
(40.3412 -15.4185 0)
(39.654 -16.7515 0)
(39.1763 -17.8907 0)
(39.0459 -18.7685 0)
(39.2847 -19.3565 0)
(39.7566 -19.8029 0)
(40.1077 -20.4934 0)
(39.7739 -21.9979 0)
(38.0818 -24.8668 0)
(34.759 -29.4093 0)
(29.568 -35.4134 0)
(22.8348 -42.4325 0)
(15.0703 -49.6817 0)
(6.90355 -56.2828 0)
(-1.06006 -61.5219 0)
(-8.36447 -64.9038 0)
(-14.7103 -66.2009 0)
(-19.9338 -65.2823 0)
(-24.2623 -62.7433 0)
(-27.9709 -59.02 0)
(-31.1626 -54.3158 0)
(-33.9139 -48.8007 0)
(-36.2964 -42.5923 0)
(-38.3691 -35.7539 0)
(-40.1797 -28.288 0)
(-41.7983 -20.1184 0)
(-43.2967 -11.1022 0)
(-44.3302 -1.21735 0)
(-44.8634 9.26147 0)
(-44.8752 20.1459 0)
(-44.1858 31.1925 0)
(-42.7566 42.0742 0)
(-40.5584 52.4427 0)
(-37.5759 61.9184 0)
(-33.828 70.0793 0)
(-29.3467 76.4158 0)
(-24.0639 80.073 0)
(-18.1479 80.5017 0)
(-12.0961 78.6471 0)
(-6.06933 74.7883 0)
(-0.242419 69.2948 0)
(5.2387 62.5609 0)
(10.2731 54.9854 0)
(14.8022 46.9276 0)
(18.8082 38.6833 0)
(22.3234 30.4633 0)
(25.4159 22.4084 0)
(28.1213 14.6842 0)
(30.2679 7.58794 0)
(31.8756 1.43841 0)
(33.1165 -3.6977 0)
(33.9988 -7.83104 0)
(34.6337 -10.9995 0)
(35.0957 -13.314 0)
(35.4059 -14.9543 0)
(35.5379 -16.1661 0)
(35.395 -17.236 0)
(34.8086 -18.476 0)
(33.6782 -20.2568 0)
(31.864 -22.8226 0)
(29.2516 -26.2184 0)
(25.8824 -30.3598 0)
(21.8902 -35.0216 0)
(17.4145 -39.8243 0)
(12.6442 -44.3805 0)
(7.7701 -48.3372 0)
(2.95375 -51.3968 0)
(-1.66707 -53.3359 0)
(-5.94071 -53.9576 0)
(-9.76784 -53.1632 0)
(-13.2401 -51.362 0)
(-16.3948 -48.646 0)
(-19.2235 -45.1288 0)
(-21.7284 -40.9163 0)
(-23.9202 -36.1063 0)
(-25.8132 -30.7832 0)
(-27.4253 -25.0029 0)
(-28.7923 -18.7699 0)
(-29.9916 -12.0205 0)
(-30.9423 -4.71231 0)
(-31.3565 2.96338 0)
(-31.4494 10.8047 0)
(-31.0713 18.6639 0)
(-30.2029 26.3453 0)
(-28.8601 33.6603 0)
(-27.046 40.4264 0)
(-24.7795 46.4689 0)
(-22.0953 51.6111 0)
(-19.0297 55.6256 0)
(-15.573 58.1378 0)
(-11.7491 58.6783 0)
(-7.82786 57.8538 0)
(-3.89721 55.806 0)
(-0.0480313 52.7206 0)
(3.63661 48.7908 0)
(7.08578 44.2171 0)
(10.2497 39.1917 0)
(13.1014 33.8845 0)
(15.6374 28.428 0)
(17.8771 22.9062 0)
(19.8867 17.3532 0)
(21.76 11.7935 0)
(23.3852 6.37077 0)
(24.7222 1.36327 0)
(25.8819 -3.11466 0)
(26.7789 -7.04632 0)
(27.4067 -10.4515 0)
(27.7321 -13.4219 0)
(27.6939 -16.097 0)
(27.2221 -18.6355 0)
(26.2463 -21.1916 0)
(24.7224 -23.893 0)
(22.6571 -26.7963 0)
(20.1024 -29.8695 0)
(17.1424 -32.9974 0)
(13.8764 -36.0074 0)
(-78.8902 96.3278 0)
(-64.1334 98.5183 0)
(-47.4455 96.0151 0)
(-30.3126 89.3447 0)
(-13.8719 80.751 0)
(-1.81587 71.2755 0)
(13.8601 60.5896 0)
(23.7222 49.7582 0)
(32.1508 39.5002 0)
(38.2411 30.2312 0)
(42.1388 22.1984 0)
(44.3758 15.3961 0)
(45.3734 9.69935 0)
(45.5115 4.94993 0)
(45.0947 0.989172 0)
(44.3487 -2.32523 0)
(43.4353 -5.11458 0)
(42.4635 -7.48227 0)
(41.499 -9.52069 0)
(40.5723 -11.3186 0)
(39.6893 -12.9586 0)
(38.8484 -14.5015 0)
(38.0632 -15.9717 0)
(37.3644 -17.3513 0)
(36.8283 -18.5768 0)
(36.5866 -19.5652 0)
(36.6815 -20.2701 0)
(37.0011 -20.8094 0)
(37.2079 -21.52 0)
(36.7307 -22.8984 0)
(34.9139 -25.4475 0)
(31.4724 -29.4832 0)
(26.1354 -34.7546 0)
(19.2292 -40.8439 0)
(11.3301 -47.0628 0)
(3.06563 -52.601 0)
(-4.93437 -56.7664 0)
(-12.2152 -59.1285 0)
(-18.4913 -59.5434 0)
(-23.6263 -57.9048 0)
(-27.9061 -54.8678 0)
(-31.5677 -50.7507 0)
(-34.7252 -45.7217 0)
(-37.4597 -39.9159 0)
(-39.8306 -33.4093 0)
(-41.8859 -26.2248 0)
(-43.6841 -18.3335 0)
(-45.2367 -9.68222 0)
(-46.2048 -0.33031 0)
(-46.6489 9.49381 0)
(-46.4905 19.6495 0)
(-45.5969 29.8819 0)
(-43.9387 39.8976 0)
(-41.4953 49.3782 0)
(-38.2664 57.9753 0)
(-34.2765 65.2889 0)
(-29.5324 70.7737 0)
(-23.9447 73.5692 0)
(-17.8484 73.6911 0)
(-11.6602 71.7727 0)
(-5.54188 68.0719 0)
(0.339035 62.9101 0)
(5.85019 56.638 0)
(10.9051 49.6045 0)
(15.4547 42.1216 0)
(19.4932 34.4411 0)
(23.0562 26.7441 0)
(26.1941 19.1887 0)
(28.8665 12.0099 0)
(30.8499 5.50878 0)
(32.3906 -0.0880318 0)
(33.4904 -4.79338 0)
(34.2318 -8.60033 0)
(34.7288 -11.538 0)
(35.0606 -13.6835 0)
(35.2692 -15.1612 0)
(35.3524 -16.1518 0)
(35.221 -16.8791 0)
(34.7634 -17.6394 0)
(33.8601 -18.7567 0)
(32.3462 -20.4942 0)
(30.1086 -23.0339 0)
(27.0771 -26.3755 0)
(23.2612 -30.3096 0)
(18.8841 -34.6173 0)
(14.0948 -38.9036 0)
(9.08709 -42.787 0)
(4.05566 -45.9521 0)
(-0.839984 -48.1553 0)
(-5.45465 -49.2084 0)
(-9.63137 -48.9298 0)
(-13.3638 -47.5011 0)
(-16.7495 -45.1681 0)
(-19.7977 -42.0235 0)
(-22.5081 -38.1722 0)
(-24.8931 -33.7081 0)
(-26.9669 -28.7071 0)
(-28.7423 -23.2198 0)
(-30.2461 -17.2647 0)
(-31.5219 -10.8273 0)
(-32.4414 -3.93217 0)
(-32.8545 3.25523 0)
(-32.8938 10.5882 0)
(-32.433 17.9119 0)
(-31.464 25.0424 0)
(-29.996 31.8073 0)
(-28.0367 38.042 0)
(-25.6097 43.5851 0)
(-22.7517 48.262 0)
(-19.4948 51.8416 0)
(-15.7936 53.8837 0)
(-11.7688 54.2302 0)
(-7.6782 53.3421 0)
(-3.60173 51.3492 0)
(0.362455 48.422 0)
(4.12751 44.7374 0)
(7.62562 40.4738 0)
(10.8137 35.7988 0)
(13.6732 30.8529 0)
(16.2077 25.7381 0)
(18.4522 20.5116 0)
(20.4991 15.1965 0)
(22.4019 9.85704 0)
(23.951 4.69107 0)
(25.3234 -0.030066 0)
(26.4667 -4.24505 0)
(27.3556 -7.89731 0)
(27.9878 -10.989 0)
(28.3295 -13.5954 0)
(28.3308 -15.8407 0)
(27.927 -17.8745 0)
(27.0381 -19.855 0)
(25.6024 -21.9366 0)
(23.6082 -24.2327 0)
(21.0961 -26.7681 0)
(18.1441 -29.469 0)
(14.8435 -32.1787 0)
(-63.9948 79.6536 0)
(-48.7615 79.562 0)
(-33.1397 76.5134 0)
(-15.093 71.8563 0)
(-6.04256 64.6062 0)
(9.67821 56.9291 0)
(19.5474 48.1649 0)
(27.3195 40.2549 0)
(33.5157 32.6965 0)
(37.7691 25.6999 0)
(40.4549 19.4887 0)
(41.9839 14.0354 0)
(42.6573 9.28829 0)
(42.7292 5.17667 0)
(42.4039 1.61813 0)
(41.8336 -1.4673 0)
(41.1255 -4.14902 0)
(40.3529 -6.48798 0)
(39.5615 -8.54155 0)
(38.7756 -10.3701 0)
(38.0005 -12.0365 0)
(37.2256 -13.5941 0)
(36.4354 -15.0788 0)
(35.6294 -16.5151 0)
(34.8275 -17.8994 0)
(34.1171 -19.1777 0)