/*--------------------------------*- C++ -*----------------------------------*\
| =========                 |                                                 |
| \\      /  F ield         | OpenFOAM: The Open Source CFD Toolbox           |
|  \\    /   O peration     | Version:  2206                                  |
|   \\  /    A nd           | Website:  www.openfoam.com                      |
|    \\/     M anipulation  |                                                 |
\*---------------------------------------------------------------------------*/
FoamFile
{
    version     2.0;
    format      ascii;
    arch        "LSB;label=32;scalar=64";
    class       volScalarField;
    location    "19.5999";
    object      p;
}
// * * * * * * * * * * * * * * * * * * * * * * * * * * * * * * * * * * * * * //

dimensions      [0 2 -2 0 0 0 0];

internalField   nonuniform List<scalar> 
4830
(
0.505128
0.505089
0.504989
0.50483
0.50462
0.504362
0.504054
0.503698
0.503294
0.502844
0.50235
0.501813
0.501236
0.50062
0.499967
0.499279
0.498559
0.497808
0.497028
0.496222
0.495392
0.49454
0.493669
0.492781
0.491877
0.490961
0.490035
0.489101
0.488161
0.487218
0.486274
0.485332
0.484394
0.483462
0.48254
0.481628
0.480731
0.479851
0.478989
0.478149
0.477334
0.476546
0.475788
0.475063
0.474374
0.473724
0.473115
0.472553
0.472038
0.471576
0.47117
0.470823
0.470538
0.47032
0.470172
0.470099
0.470109
0.470207
0.470398
0.470685
0.471076
0.471577
0.472195
0.472939
0.473815
0.474834
0.476005
0.477338
0.478846
0.480539
0.482432
0.484539
0.486877
0.489462
0.492315
0.495455
0.498906
0.502694
0.506845
0.511391
0.516363
0.5218
0.527741
0.534231
0.541319
0.549058
0.557507
0.566732
0.576804
0.587802
0.59981
0.612922
0.627236
0.642862
0.65991
0.678497
0.698739
0.720744
0.744606
0.770385
0.798086
0.82762
0.858751
0.891005
0.923537
0.954907
0.982745
1.00299
1.00968
0.989433
0.937541
0.705266
0.504817
0.504779
0.50468
0.504524
0.504317
0.504063
0.50376
0.503409
0.503011
0.502568
0.502081
0.501553
0.500983
0.500376
0.499731
0.499052
0.498341
0.497599
0.496828
0.496032
0.495211
0.494368
0.493506
0.492627
0.491733
0.490826
0.489909
0.488984
0.488053
0.487118
0.486184
0.48525
0.484321
0.483398
0.482484
0.481582
0.480693
0.479821
0.478968
0.478137
0.477331
0.476551
0.475802
0.475086
0.474407
0.473766
0.473168
0.472615
0.472111
0.47166
0.471265
0.470931
0.47066
0.470456
0.470324
0.470266
0.470291
0.470408
0.470619
0.470929
0.471344
0.471871
0.472519
0.473294
0.474207
0.475265
0.47648
0.477861
0.479422
0.481176
0.483136
0.485318
0.48774
0.490419
0.493377
0.496635
0.500219
0.504156
0.508476
0.513212
0.518401
0.524082
0.530302
0.537109
0.544559
0.552714
0.561641
0.571417
0.582127
0.593865
0.606736
0.620858
0.63636
0.653387
0.672097
0.692665
0.71528
0.740144
0.767466
0.797457
0.830316
0.866206
0.905218
0.947316
0.992246
1.03939
1.08756
1.1346
1.17678
1.20762
1.21602
1.17977
0.504571
0.504533
0.504435
0.504281
0.504077
0.503825
0.503526
0.503179
0.502785
0.502347
0.501865
0.501342
0.500778
0.500177
0.499538
0.498866
0.49816
0.497425
0.496661
0.49587
0.495056
0.49422
0.493365
0.492492
0.491604
0.490703
0.489792
0.488873
0.487948
0.487019
0.48609
0.485163
0.484239
0.483322
0.482414
0.481517
0.480633
0.479767
0.478919
0.478093
0.477292
0.476518
0.475775
0.475064
0.47439
0.473755
0.473162
0.472615
0.472118
0.471673
0.471285
0.470957
0.470694
0.4705
0.470378
0.470333
0.470365
0.470491
0.470714
0.471039
0.471469
0.472014
0.47268
0.473477
0.474413
0.475497
0.476741
0.478156
0.479754
0.481549
0.483555
0.485789
0.488269
0.491015
0.494047
0.49739
0.501069
0.505114
0.509556
0.514431
0.519777
0.525639
0.532064
0.539107
0.546828
0.555294
0.564581
0.574774
0.585968
0.598272
0.611805
0.626706
0.643129
0.661248
0.681262
0.703392
0.727889
0.755031
0.785126
0.81851
0.855539
0.896573
0.941954
0.991952
1.04668
1.10598
1.16913
1.23463
1.29956
1.35924
1.40561
1.43116
0.504388
0.504351
0.504254
0.504101
0.503898
0.503648
0.503351
0.503006
0.502616
0.50218
0.501701
0.501181
0.500621
0.500023
0.499388
0.498719
0.498017
0.497285
0.496525
0.495739
0.494928
0.494096
0.493244
0.492374
0.49149
0.490592
0.489684
0.488768
0.487846
0.486921
0.485995
0.485069
0.484149
0.483234
0.482328
0.481433
0.480552
0.479688
0.478842
0.478018
0.477219
0.476447
0.475705
0.474996
0.474323
0.47369
0.473099
0.472554
0.472058
0.471615
0.471229
0.470903
0.470642
0.47045
0.470331
0.470294
0.470328
0.470456
0.470684
0.471014
0.471451
0.472002
0.472677
0.473483
0.47443
0.475527
0.476786
0.478217
0.479834
0.48165
0.483682
0.485944
0.488457
0.49124
0.494314
0.497706
0.501441
0.505549
0.510064
0.515023
0.520465
0.526438
0.53299
0.540181
0.548072
0.556736
0.566253
0.576714
0.588222
0.600894
0.614863
0.630278
0.647313
0.666162
0.687052
0.710239
0.736016
0.764716
0.796716
0.832439
0.872347
0.916935
0.9667
1.02209
1.08341
1.15066
1.22323
1.29951
1.37624
1.44787
1.5057
1.53946
0.501589
0.50107
0.500511
0.499914
0.499281
0.498613
0.497912
0.497181
0.496422
0.495636
0.494827
0.493995
0.493143
0.492275
0.491391
0.490493
0.489586
0.48867
0.487748
0.486822
0.485896
0.48497
0.484049
0.483134
0.482227
0.481331
0.480449
0.479584
0.478737
0.477912
0.477111
0.476337
0.475593
0.474882
0.474207
0.473572
0.472978
0.472431
0.471932
0.471486
0.471097
0.470769
0.470504
0.47031
0.470187
0.470141
0.470175
0.470302
0.470527
0.470854
0.471287
0.471836
0.472508
0.473312
0.474257
0.475353
0.476611
0.478042
0.479659
0.481477
0.483511
0.485778
0.488296
0.491086
0.494171
0.497574
0.501324
0.50545
0.509987
0.514972
0.520447
0.526457
0.533056
0.5403
0.548256
0.556998
0.566607
0.577178
0.588818
0.601647
0.615803
0.631445
0.648753
0.667934
0.689226
0.712903
0.739281
0.768719
0.801629
0.838477
0.879779
0.926091
0.977983
1.03598
1.10046
1.17145
1.24834
1.32938
1.41103
1.48725
1.54874
1.58489
0.626618
0.595022
0.573617
0.564384
0.559117
0.554042
0.549144
0.54483
0.541121
0.537833
0.534807
0.531974
0.529303
0.526755
0.524293
0.521898
0.519561
0.517272
0.51502
0.512795
0.510586
0.508386
0.50619
0.503994
0.501794
0.499584
0.497366
0.495137
0.492904
0.490625
0.488182
0.485614
0.483054
0.480508
0.477954
0.475389
0.472818
0.470249
0.467688
0.465142
0.462619
0.460128
0.457678
0.455279
0.452938
0.450663
0.448459
0.446334
0.444295
0.442345
0.440484
0.438712
0.437027
0.435423
0.433895
0.432434
0.431033
0.429681
0.428367
0.427079
0.425805
0.424533
0.423249
0.421941
0.420595
0.41921
0.417784
0.416302
0.414753
0.413124
0.411399
0.409558
0.407588
0.405468
0.403192
0.400741
0.398101
0.395258
0.392198
0.388905
0.385366
0.381563
0.37748
0.373098
0.368401
0.363368
0.357979
0.352213
0.346048
0.339463
0.332435
0.324941
0.316959
0.308466
0.299442
0.289866
0.27972
0.268987
0.257654
0.245709
0.233145
0.219958
0.206148
0.191722
0.176691
0.161071
0.144896
0.128196
0.111004
0.0933662
0.075338
0.0569752
0.589707
0.577995
0.566606
0.560232
0.555715
0.551301
0.547007
0.54312
0.539677
0.536561
0.533671
0.530974
0.528438
0.52598
0.523572
0.521224
0.518935
0.516691
0.514481
0.512296
0.510125
0.507962
0.505804
0.503647
0.501483
0.499307
0.497118
0.494909
0.492679
0.490398
0.488023
0.485572
0.483098
0.480618
0.478123
0.475615
0.473098
0.47058
0.468067
0.465568
0.463093
0.460648
0.458242
0.455883
0.453585
0.451352
0.449171
0.447055
0.445027
0.443088
0.441236
0.439469
0.437784
0.436175
0.434638
0.433165
0.431749
0.430383
0.429051
0.427742
0.426445
0.425149
0.423844
0.422518
0.421156
0.41977
0.418343
0.416832
0.415263
0.413608
0.411852
0.40998
0.407983
0.405852
0.403566
0.401096
0.398434
0.395572
0.392496
0.38919
0.385636
0.381819
0.377724
0.373331
0.368622
0.363577
0.358175
0.352395
0.346215
0.339613
0.332565
0.325049
0.317041
0.308519
0.299462
0.289849
0.279663
0.268885
0.257502
0.245504
0.232881
0.219629
0.205749
0.191247
0.176136
0.160434
0.144169
0.127372
0.110079
0.0923408
0.0742111
0.0557502
0.574448
0.570839
0.564517
0.558745
0.554155
0.550062
0.546123
0.54246
0.539091
0.535977
0.533024
0.530303
0.527848
0.525429
0.523015
0.520656
0.518365
0.516127
0.513933
0.511763
0.509598
0.507443
0.505303
0.503166
0.501022
0.498869
0.496706
0.494542
0.492359
0.490121
0.48782
0.485471
0.483098
0.480713
0.478319
0.475917
0.473511
0.471104
0.468698
0.466301
0.46393
0.461593
0.459294
0.457036
0.454827
0.452669
0.450563
0.44852
0.44655
0.444659
0.442847
0.441109
0.439441
0.43784
0.436302
0.434823
0.433395
0.43201
0.430657
0.429326
0.428008
0.426691
0.425365
0.424021
0.422649
0.421242
0.419782
0.418262
0.416681
0.415023
0.413257
0.411393
0.409406
0.407292
0.405008
0.402543
0.399895
0.397053
0.394001
0.390721
0.387195
0.383408
0.379342
0.374977
0.370294
0.365272
0.359889
0.354124
0.347953
0.341351
0.334295
0.326761
0.318722
0.310158
0.301048
0.291371
0.281108
0.270239
0.258752
0.246636
0.233876
0.220466
0.206407
0.191707
0.176377
0.160439
0.143917
0.126847
0.109269
0.0912325
0.0727938
0.0540153
0.563948
0.562091
0.557998
0.553516
0.549677
0.546279
0.542992
0.539806
0.536789
0.533965
0.5313
0.528782
0.526388
0.524048
0.521746
0.519496
0.517303
0.515147
0.513047
0.51096
0.508836
0.506732
0.50465
0.502564
0.500466
0.498352
0.496214
0.494113
0.492032
0.489883
0.487666
0.48541
0.483136
0.480852
0.47856
0.476264
0.473967
0.471675
0.469396
0.467122
0.464857
0.46262
0.46042
0.45826
0.456145
0.454079
0.452065
0.450109
0.448213
0.446395
0.444656
0.442975
0.441343
0.439767
0.438249
0.436783
0.435363
0.433982
0.432631
0.431302
0.429985
0.428669
0.42734
0.425992
0.424618
0.423207
0.421751
0.420244
0.418671
0.417024
0.415283
0.413435
0.41147
0.409366
0.407105
0.404676
0.40207
0.399272
0.396264
0.39303
0.389552
0.385813
0.381795
0.377476
0.372836
0.367854
0.362506
0.356769
0.350618
0.344025
0.336967
0.329413
0.321336
0.31271
0.303519
0.293765
0.283416
0.272433
0.260794
0.248491
0.235518
0.22187
0.207546
0.192553
0.176905
0.160623
0.143734
0.126276
0.108291
0.0898317
0.0709575
0.0517351
0.556012
0.554992
0.552552
0.549484
0.546483
0.543642
0.540832
0.538038
0.535326
0.532728
0.530234
0.527826
0.525493
0.523225
0.521005
0.518823
0.516679
0.514567
0.512482
0.510409
0.508335
0.506276
0.504225
0.502178
0.500128
0.498073
0.496014
0.493957
0.49189
0.489785
0.487641
0.485472
0.483291
0.4811
0.478901
0.476698
0.474497
0.472303
0.470125
0.46796
0.465802
0.463667
0.461565
0.4595
0.457472
0.45549
0.453555
0.451671
0.449825
0.448061
0.446407
0.4448
0.443219
0.44168
0.440191
0.438749
0.437346
0.435977
0.434636
0.433319
0.432019
0.430721
0.42941
0.428074
0.426711
0.425317
0.423884
0.422399
0.42085
0.419226
0.417513
0.415697
0.413769
0.411711
0.409505
0.407137
0.404593
0.40186
0.39892
0.395756
0.392352
0.388687
0.384743
0.380498
0.37593
0.371016
0.365732
0.360049
0.353948
0.34739
0.340361
0.33281
0.324721
0.31604
0.306731
0.296887
0.286468
0.275385
0.263602
0.251119
0.237931
0.224033
0.209422
0.194106
0.178097
0.161418
0.144099
0.126178
0.107702
0.0887276
0.0693182
0.0495463
0.549829
0.549212
0.547612
0.54536
0.542923
0.540488
0.538049
0.535598
0.533169
0.530795
0.528484
0.526232
0.524034
0.521884
0.519772
0.517689
0.515633
0.513601
0.511588
0.509589
0.507596
0.50561
0.503626
0.501644
0.49966
0.49767
0.495672
0.493665
0.491646
0.489609
0.48755
0.485472
0.483381
0.481282
0.479176
0.47707
0.474965
0.472868
0.470783
0.468711
0.466654
0.46462
0.462616
0.460648
0.458716
0.456825
0.454978
0.453178
0.451432
0.44975
0.448133
0.446558
0.445019
0.443524
0.442075
0.440668
0.439296
0.437953
0.436627
0.435328
0.434061
0.432806
0.431541
0.430237
0.428898
0.427532
0.42613
0.424681
0.423169
0.421583
0.419904
0.418125
0.416252
0.414259
0.412122
0.409828
0.407363
0.404712
0.40186
0.398788
0.395477
0.391908
0.388059
0.38391
0.379435
0.374611
0.369411
0.363808
0.357773
0.351276
0.344287
0.336772
0.3287
0.32004
0.310773
0.300901
0.290381
0.279161
0.267215
0.254532
0.241105
0.226924
0.211986
0.196297
0.179871
0.16273
0.144904
0.126437
0.107377
0.0877872
0.0677356
0.0473012
0.544738
0.544302
0.543157
0.541473
0.539543
0.537527
0.535457
0.533336
0.531193
0.529057
0.526944
0.52486
0.522802
0.52077
0.51876
0.516769
0.514796
0.512837
0.51089
0.508952
0.507018
0.505087
0.503156
0.501224
0.49929
0.497351
0.495405
0.493452
0.49149
0.489516
0.487528
0.485525
0.483512
0.481494
0.479473
0.477452
0.475436
0.473428
0.471431
0.469449
0.467486
0.465545
0.463633
0.461753
0.45991
0.458105
0.45634
0.45462
0.452947
0.451324
0.449752
0.448225
0.446741
0.445298
0.443897
0.442532
0.4412
0.439896
0.438615
0.437357
0.436117
0.434881
0.433633
0.432363
0.431068
0.429747
0.428392
0.42699
0.425529
0.423999
0.422388
0.420688
0.418889
0.416972
0.41492
0.412717
0.410351
0.407805
0.405063
0.402105
0.398913
0.395466
0.391742
0.387717
0.383367
0.378666
0.373585
0.368096
0.362167
0.355767
0.348863
0.341421
0.333406
0.324788
0.315534
0.305616
0.295004
0.283666
0.271571
0.258698
0.245032
0.230559
0.215276
0.199187
0.182303
0.164648
0.146254
0.127166
0.107438
0.087137
0.0663394
0.0451315
0.540405
0.540075
0.539219
0.537927
0.536379
0.534693
0.53291
0.531051
0.529141
0.527207
0.525269
0.523335
0.521408
0.519491
0.517585
0.51569
0.513803
0.511924
0.510051
0.508183
0.506317
0.504451
0.502585
0.500717
0.498845
0.496968
0.495086
0.493196
0.491299
0.489391
0.487473
0.485546
0.483612
0.481674
0.479736
0.477799
0.475868
0.473946
0.472035
0.47014
0.468264
0.466411
0.464584
0.462788
0.461025
0.459298
0.457609
0.455961
0.454357
0.452798
0.451285
0.449816
0.448388
0.446999
0.445646
0.444328
0.443041
0.441781
0.440544
0.439326
0.438121
0.43692
0.435715
0.434498
0.433261
0.431998
0.430701
0.429361
0.427968
0.426511
0.424979
0.423362
0.421648
0.419821
0.417869
0.415775
0.413524
0.411101
0.408486
0.405663
0.40261
0.399306
0.395728
0.391852
0.387652
0.383099
0.378165
0.372818
0.367025
0.360751
0.353961
0.346618
0.338684
0.330124
0.320898
0.310975
0.300319
0.288896
0.276671
0.263615
0.249706
0.23493
0.219279
0.202755
0.185367
0.16714
0.148106
0.128314
0.107823
0.0867049
0.0650452
0.0429397
0.536642
0.536383
0.535713
0.534686
0.533419
0.531996
0.530457
0.528828
0.527131
0.52539
0.523623
0.521841
0.52005
0.518255
0.516458
0.514662
0.512866
0.51107
0.509275
0.507479
0.505681
0.503882
0.502079
0.500272
0.49846
0.496643
0.49482
0.49299
0.491154
0.48931
0.487459
0.485601
0.48374
0.481877
0.480014
0.478156
0.476303
0.474461
0.472631
0.470817
0.469022
0.467249
0.465502
0.463784
0.462098
0.460446
0.458831
0.457255
0.455719
0.454224
0.452771
0.451359
0.449986
0.44865
0.447349
0.446082
0.444845
0.443634
0.442446
0.441275
0.440118
0.438967
0.437816
0.436656
0.435479
0.434281
0.433051
0.431783
0.430467
0.429094
0.427652
0.426132
0.42452
0.422804
0.420971
0.419004
0.416888
0.414607
0.412143
0.409477
0.406587
0.403453
0.40005
0.396353
0.392334
0.387964
0.383211
0.378042
0.372422
0.366313
0.359676
0.352471
0.344657
0.336191
0.327032
0.317137
0.306466
0.294978
0.282633
0.269399
0.255247
0.240158
0.224118
0.207125
0.189188
0.170327
0.150579
0.129992
0.108633
0.0865806
0.0639301
0.0407889
0.533324
0.533114
0.532571
0.531731
0.530676
0.529466
0.528132
0.526696
0.525182
0.52361
0.521996
0.520351
0.518685
0.517004
0.51531
0.513608
0.511899
0.510185
0.508465
0.506741
0.505012
0.503278
0.501539
0.499794
0.498044
0.496288
0.494527
0.492759
0.490986
0.489206
0.487422
0.485634
0.483843
0.482052
0.480264
0.47848
0.476704
0.474938
0.473185
0.471449
0.469731
0.468036
0.466366
0.464723
0.463111
0.461532
0.459987
0.458479
0.45701
0.455579
0.454187
0.452834
0.451518
0.450238
0.448993
0.447781
0.446598
0.445441
0.444307
0.443192
0.44209
0.440997
0.439906
0.43881
0.437703
0.436577
0.435427
0.434244
0.433019
0.431742
0.430405
0.428995
0.427502
0.425914
0.424215
0.422393
0.42043
0.418311
0.416018
0.413532
0.41083
0.407892
0.404691
0.401201
0.397395
0.39324
0.388703
0.383749
0.37834
0.372434
0.365991
0.358965
0.351309
0.342976
0.333919
0.324087
0.313434
0.30191
0.289471
0.276075
0.261688
0.246281
0.229835
0.212341
0.193805
0.174246
0.1537
0.13222
0.109875
0.0867561
0.0629684
0.0386343
0.530366
0.530192
0.52974
0.529037
0.528144
0.527102
0.525935
0.524663
0.523306
0.521882
0.520407
0.518891
0.517343
0.51577
0.514178
0.51257
0.510948
0.509315
0.507673
0.506021
0.504362
0.502695
0.501021
0.499339
0.497652
0.495957
0.494257
0.492551
0.490839
0.489123
0.487403
0.48568
0.483957
0.482235
0.480516
0.478803
0.477098
0.475405
0.473725
0.472061
0.470417
0.468794
0.467196
0.465625
0.464083
0.462573
0.461097
0.459655
0.45825
0.456882
0.455552
0.454259
0.453002
0.451781
0.450594
0.449438
0.448313
0.447214
0.446139
0.445085
0.444045
0.443017
0.441994
0.440971
0.439941
0.438899
0.437837
0.436748
0.435623
0.434455
0.433233
0.431947
0.430587
0.42914
0.427593
0.425932
0.424141
0.422205
0.420105
0.417822
0.415334
0.412617
0.409648
0.406398
0.402838
0.398934
0.394651
0.389953
0.384797
0.37914
0.372936
0.366135
0.358686
0.350535
0.341626
0.331903
0.32131
0.30979
0.297288
0.283754
0.269143
0.253417
0.236549
0.218524
0.19934
0.179014
0.15758
0.135095
0.111635
0.0873005
0.0622103
0.0365046
0.527708
0.527559
0.527175
0.526576
0.525807
0.524899
0.52387
0.522737
0.521515
0.520222
0.518871
0.517471
0.516033
0.514563
0.513065
0.511546
0.510008
0.508454
0.506886
0.505306
0.503714
0.502113
0.500502
0.498883
0.497256
0.495622
0.493982
0.492336
0.490685
0.48903
0.487373
0.485714
0.484055
0.482399
0.480747
0.479102
0.477466
0.475841
0.474231
0.472637
0.471062
0.469509
0.46798
0.466477
0.465004
0.463561
0.46215
0.460774
0.459433
0.458127
0.456859
0.455626
0.45443
0.453269
0.452141
0.451046
0.449982
0.448945
0.447934
0.446945
0.445974
0.445017
0.444069
0.443125
0.442181
0.441229
0.440263
0.439278
0.438264
0.437215
0.436121
0.434972
0.433758
0.432468
0.431089
0.429607
0.428007
0.426274
0.424388
0.422332
0.420082
0.417617
0.414909
0.411931
0.408652
0.405037
0.401049
0.396649
0.391793
0.386432
0.380518
0.373995
0.366806
0.35889
0.350184
0.340622
0.330139
0.318668
0.306142
0.292501
0.277686
0.261648
0.24435
0.225765
0.205884
0.184718
0.162301
0.138689
0.113968
0.0882475
0.0616649
0.0343815
0.525303
0.525174
0.524842
0.524322
0.523651
0.522852
0.521938
0.520921
0.519816
0.518637
0.517396
0.516102
0.514763
0.513387
0.51198
0.510545
0.509087
0.50761
0.506114
0.504603
0.503079
0.501542
0.499994
0.498437
0.49687
0.495296
0.493715
0.492129
0.490537
0.488943
0.487346
0.485748
0.484152
0.482559
0.480971
0.47939
0.477819
0.47626
0.474716
0.473188
0.471679
0.470192
0.468729
0.467293
0.465884
0.464506
0.463159
0.461846
0.460567
0.459324
0.458116
0.456945
0.45581
0.45471
0.453644
0.452611
0.451611
0.450639
0.449696
0.448776
0.447878
0.446997
0.446131
0.445273
0.44442
0.443566
0.442705
0.441832
0.440939
0.440018
0.439063
0.438063
0.437009
0.435889
0.434693
0.433407
0.432016
0.430505
0.428856
0.427049
0.425065
0.422878
0.420463
0.41779
0.414828
0.411542
0.407893
0.403838
0.39933
0.39432
0.388751
0.382564
0.375696
0.368078
0.359639
0.350302
0.339992
0.328627
0.31613
0.302425
0.287438
0.271107
0.253377
0.23421
0.213585
0.191505
0.168
0.143127
0.116977
0.0896768
0.061382
0.0322809
0.523117
0.523004
0.522713
0.522256
0.521663
0.520952
0.520132
0.519214
0.51821
0.51713
0.515987
0.514788
0.51354
0.512252
0.510928
0.509573
0.508191
0.506786
0.505361
0.503917
0.502457
0.500983
0.499496
0.497998
0.496491
0.494975
0.493452
0.491923
0.490389
0.488852
0.487314
0.485776
0.484239
0.482706
0.481179
0.47966
0.478151
0.476654
0.475173
0.473708
0.472262
0.470839
0.469439
0.468065
0.466719
0.465403
0.464118
0.462867
0.461649
0.460467
0.459321
0.458211
0.457137
0.456099
0.455096
0.454128
0.453193
0.45229
0.451417
0.450571
0.44975
0.448951
0.44817
0.447404
0.446648
0.445899
0.44515
0.444396
0.443632
0.44285
0.442043
0.441203
0.44032
0.439385
0.438387
0.437312
0.436148
0.434878
0.433487
0.431955
0.430261
0.428381
0.42629
0.423957
0.421351
0.418435
0.415169
0.411509
0.407404
0.402801
0.397639
0.391855
0.385377
0.37813
0.370031
0.360994
0.35093
0.339744
0.327342
0.31363
0.298518
0.281923
0.263771
0.244007
0.222595
0.199525
0.174819
0.148534
0.120768
0.0916623
0.0613979
0.030196
0.521123
0.521023
0.520764
0.520358
0.519828
0.51919
0.51845
0.517615
0.516697
0.515705
0.514648
0.513534
0.512369
0.511161
0.509914
0.508634
0.507324
0.505988
0.504629
0.503249
0.501851
0.500438
0.49901
0.497571
0.496121
0.494661
0.493194
0.491721
0.490243
0.488762
0.48728
0.485799
0.484319
0.482844
0.481375
0.479915
0.478465
0.477028
0.475606
0.474201
0.472816
0.471452
0.470113
0.468799
0.467513
0.466258
0.465033
0.463841
0.462684
0.461562
0.460476
0.459427
0.458415
0.457439
0.456501
0.455598
0.454731
0.453898
0.453098
0.452328
0.451588
0.450874
0.450183
0.449513
0.448861
0.448221
0.44759
0.446964
0.446336
0.4457
0.445051
0.444381
0.443681
0.442943
0.442155
0.441307
0.440386
0.439377
0.438264
0.437029
0.435651
0.434107
0.432371
0.430414
0.428203
0.4257
0.422865
0.419651
0.416006
0.411873
0.407187
0.401878
0.395868
0.389073
0.381401
0.372753
0.363024
0.352105
0.339882
0.32624
0.311067
0.294256
0.275709
0.255347
0.233111
0.208975
0.182949
0.155085
0.125487
0.0943135
0.0617755
0.0281358
0.519299
0.51921
0.518978
0.518612
0.518134
0.517557
0.516883
0.516121
0.515277
0.514361
0.513381
0.512343
0.511253
0.510118
0.508943
0.507731
0.506488
0.505217
0.503921
0.502603
0.501265
0.499909
0.498539
0.497155
0.49576
0.494355
0.492941
0.491522
0.490098
0.488671
0.487243
0.485815
0.484391
0.48297
0.481557
0.480152
0.478759
0.477378
0.476013
0.474665
0.473337
0.472031
0.470749
0.469494
0.468266
0.467068
0.465901
0.464768
0.463669
0.462606
0.46158
0.460591
0.459641
0.458728
0.457854
0.457018
0.456219
0.455458
0.454733
0.454042
0.453385
0.452759
0.452162
0.451592
0.451046
0.450522
0.450014
0.44952
0.449035
0.448554
0.448071
0.447579
0.447072
0.446542
0.445978
0.445371
0.444708
0.443977
0.443162
0.442246
0.441209
0.440029
0.43868
0.437134
0.435357
0.433312
0.430957
0.428245
0.42512
0.421524
0.417387
0.412633
0.407178
0.400929
0.393782
0.385626
0.37634
0.365796
0.353857
0.340384
0.325238
0.308282
0.289387
0.268441
0.245359
0.220086
0.192613
0.162985
0.131307
0.0977572
0.062582
0.0260974
0.517629
0.517547
0.517337
0.517006
0.516571
0.516044
0.515428
0.514727
0.513948
0.513099
0.512186
0.511216
0.510194
0.509125
0.508015
0.506868
0.505687
0.504477
0.50324
0.50198
0.500698
0.499398
0.498082
0.496752
0.495409
0.494056
0.492695
0.491327
0.489954
0.488579
0.487202
0.485826
0.484454
0.483086
0.481725
0.480373
0.479033
0.477706
0.476395
0.475102
0.473828
0.472577
0.47135
0.47015
0.468977
0.467835
0.466725
0.465648
0.464606
0.463601
0.462633
0.461704
0.460815
0.459965
0.459155
0.458386
0.457657
0.456968
0.456319
0.455708
0.455136
0.4546
0.4541
0.453633
0.453198
0.452792
0.452412
0.452056
0.451719
0.451398
0.451087
0.450782
0.450477
0.450164
0.449835
0.449481
0.449092
0.448655
0.448157
0.447581
0.446909
0.446119
0.445188
0.444087
0.442784
0.441242
0.439417
0.437263
0.434723
0.431735
0.428226
0.424115
0.419312
0.413713
0.407205
0.399662
0.390945
0.380904
0.36938
0.356204
0.341202
0.324201
0.305034
0.283547
0.259613
0.233141
0.204093
0.172495
0.138453
0.102161
0.0639092
0.0240818
0.516096
0.516022
0.51583
0.515527
0.515129
0.514645
0.514077
0.513429
0.512706
0.511916
0.511063
0.510154
0.509193
0.508185
0.507134
0.506046
0.504923
0.503769
0.502588
0.501382
0.500154
0.498906
0.497642
0.496362
0.495069
0.493766
0.492454
0.491135
0.489812
0.488485
0.487158
0.485831
0.484508
0.48319
0.481879
0.480578
0.479288
0.478012
0.476752
0.47551
0.474288
0.473089
0.471915
0.470767
0.469648
0.468559
0.467503
0.46648
0.465494
0.464545
0.463634
0.462764
0.461934
0.461146
0.4604
0.459698
0.459038
0.458423
0.45785
0.457321
0.456835
0.456391
0.455989
0.455628
0.455305
0.45502
0.454771
0.454556
0.454372
0.454215
0.454083
0.453971
0.453875
0.453787
0.453703
0.453614
0.45351
0.453382
0.453217
0.453001
0.452716
0.452343
0.451859
0.451237
0.450447
0.449451
0.448209
0.446671
0.444782
0.442476
0.439679
0.436306
0.432259
0.427427
0.421686
0.414893
0.406894
0.397514
0.386565
0.373846
0.359142
0.342236
0.32291
0.300958
0.276196
0.248483
0.217734
0.183944
0.147207
0.107735
0.0658689
0.022079
0.514691
0.514622
0.514445
0.514166
0.513799
0.513352
0.512825
0.512223
0.51155
0.510811
0.510011
0.509156
0.508249
0.507296
0.506301
0.505266
0.504197
0.503096
0.501966
0.500811
0.499633
0.498435
0.497218
0.495987
0.494742
0.493486
0.49222
0.490948
0.489671
0.488391
0.48711
0.48583
0.484553
0.483282
0.482019
0.480765
0.479523
0.478295
0.477083
0.47589
0.474717
0.473568
0.472443
0.471345
0.470277
0.469239
0.468235
0.467265
0.466332
0.465437
0.464582
0.463769
0.462998
0.462271
0.461589
0.460952
0.460362
0.459819
0.459323
0.458875
0.458476
0.458125
0.457821
0.457566
0.457358
0.457196
0.45708
0.457008
0.456979
0.456991
0.457042
0.457127
0.457245
0.45739
0.457558
0.457743
0.457936
0.458129
0.458312
0.458472
0.458595
0.458661
0.458652
0.458542
0.458301
0.457896
0.457286
0.456422
0.45525
0.453704
0.451708
0.449173
0.445996
0.44206
0.437227
0.431344
0.424233
0.415699
0.405521
0.393458
0.379253
0.36263
0.34331
0.321018
0.295496
0.266528
0.233963
0.197743
0.157934
0.114758
0.0686116
0.0200756
0.513401
0.513338
0.513174
0.512915
0.512574
0.512158
0.511668
0.511105
0.510475
0.509781
0.509029
0.508222
0.507365
0.506461
0.505515
0.50453
0.503509
0.502457
0.501375
0.500267
0.499136
0.497984
0.496813
0.495627
0.494427
0.493215
0.491994
0.490765
0.489532
0.488296
0.487058
0.485822
0.48459
0.483363
0.482144
0.480935
0.479738
0.478555
0.477389
0.476242
0.475115
0.474012
0.472934
0.471884
0.470864
0.469875
0.46892
0.468001
0.467119
0.466276
0.465475
0.464717
0.464004
0.463336
0.462716
0.462144
0.461622
0.461151
0.460731
0.460365
0.460051
0.459792
0.459588
0.459439
0.459345
0.459307
0.459325
0.459398
0.459526
0.459708
0.459943
0.46023
0.460566
0.460948
0.461374
0.461839
0.462337
0.462862
0.463405
0.463956
0.464503
0.465031
0.465521
0.465951
0.466296
0.466522
0.466592
0.46646
0.466072
0.465364
0.464259
0.462666
0.460481
0.457578
0.453811
0.449014
0.44299
0.435518
0.426344
0.415186
0.401731
0.385642
0.36656
0.344121
0.317969
0.287786
0.253317
0.214421
0.171107
0.123592
0.0723342
0.0180519
0.512219
0.51216
0.512008
0.511766
0.511448
0.511059
0.5106
0.510072
0.509479
0.508825
0.508114
0.507351
0.506537
0.505678
0.504777
0.503837
0.502861
0.501853
0.500816
0.499752
0.498664
0.497555
0.496427
0.495283
0.494124
0.492954
0.491774
0.490587
0.489395
0.4882
0.487004
0.485809
0.484617
0.483432
0.482255
0.481087
0.479932
0.478792
0.477669
0.476564
0.475482
0.474422
0.473389
0.472384
0.471409
0.470466
0.469558
0.468687
0.467854
0.467062
0.466312
0.465607
0.464949
0.464339
0.463779
0.463271
0.462815
0.462414
0.46207
0.461783
0.461554
0.461387
0.46128
0.461236
0.461257
0.461342
0.461493
0.46171
0.461995
0.462348
0.462769
0.463257
0.463813
0.464436
0.465123
0.465872
0.466681
0.467544
0.468457
0.469411
0.470397
0.471402
0.472413
0.47341
0.47437
0.475266
0.476061
0.476715
0.477176
0.477382
0.477259
0.476716
0.475647
0.473924
0.471394
0.467877
0.463162
0.457002
0.449109
0.439156
0.426771
0.411541
0.393014
0.370713
0.344154
0.312873
0.27647
0.234662
0.187354
0.134719
0.0772772
0.0159395
0.511138
0.511083
0.51094
0.510713
0.510415
0.510049
0.509616
0.509119
0.508559
0.50794
0.507266
0.506541
0.505767
0.504948
0.504087
0.503188
0.502254
0.501286
0.500289
0.499266
0.498218
0.497149
0.49606
0.494955
0.493836
0.492704
0.491563
0.490414
0.48926
0.488103
0.486945
0.485789
0.484636
0.483489
0.482351
0.481222
0.480107
0.479006
0.477922
0.476858
0.475816
0.474798
0.473806
0.472843
0.471911
0.471012
0.470148
0.469322
0.468536
0.467792
0.467091
0.466437
0.465832
0.465277
0.464775
0.464328
0.463937
0.463605
0.463333
0.463123
0.462978
0.462899
0.462889
0.462949
0.463081
0.463287
0.46357
0.46393
0.464371
0.464893
0.465498
0.466188
0.466964
0.467826
0.468775
0.469811
0.470933
0.47214
0.473427
0.474791
0.476226
0.477723
0.47927
0.480855
0.482457
0.484054
0.485615
0.487104
0.488474
0.489667
0.490614
0.491228
0.491404
0.491012
0.489897
0.487872
0.484711
0.480145
0.473855
0.465466
0.454544
0.44059
0.423043
0.401287
0.374669
0.342533
0.304264
0.259364
0.207546
0.148859
0.0838219
0.0135924
0.510151
0.510099
0.509964
0.50975
0.509469
0.509123
0.508714
0.508243
0.507711
0.507124
0.506483
0.505791
0.505053
0.50427
0.503446
0.502583
0.501686
0.500755
0.499796
0.498809
0.497798
0.496765
0.495713
0.494644
0.49356
0.492465
0.491359
0.490246
0.489128
0.488006
0.486884
0.485763
0.484646
0.483535
0.482432
0.48134
0.480261
0.479197
0.47815
0.477123
0.476119
0.475139
0.474185
0.473262
0.472369
0.471511
0.470689
0.469906
0.469163
0.468464
0.46781
0.467204
0.466649
0.466147
0.465701
0.465312
0.464983
0.464716
0.464514
0.46438
0.464315
0.464323
0.464405
0.464566
0.464807
0.465132
0.465543
0.466043
0.466636
0.467324
0.468111
0.469
0.469992
0.471092
0.472302
0.473623
0.475058
0.476607
0.478271
0.480049
0.481937
0.483933
0.486029
0.488216
0.49048
0.492804
0.495165
0.49753
0.499862
0.50211
0.504209
0.506081
0.507625
0.508716
0.509201
0.508889
0.507545
0.504886
0.500563
0.49416
0.485176
0.473023
0.457014
0.436367
0.410217
0.377642
0.337723
0.289643
0.232807
0.167039
0.0927208
0.0111563
0.509253
0.509203
0.509075
0.508873
0.508606
0.508278
0.507889
0.507441
0.506935
0.506374
0.505762
0.505101
0.504394
0.503643
0.502851
0.502022
0.501158
0.500261
0.499335
0.498382
0.497404
0.496405
0.495386
0.49435
0.493299
0.492237
0.491164
0.490083
0.488997
0.487909
0.486819
0.485731
0.484646
0.483568
0.482499
0.48144
0.480394
0.479363
0.478351
0.477358
0.476388
0.475444
0.474526
0.473639
0.472783
0.471963
0.471179
0.470436
0.469734
0.469077
0.468467
0.467907
0.467399
0.466946
0.466552
0.466219
0.465948
0.465744
0.465609
0.465546
0.465558
0.465648
0.46582
0.466078
0.466424
0.466863
0.467398
0.468033
0.468774
0.469624
0.470587
0.471669
0.472874
0.474206
0.475671
0.477273
0.479016
0.480905
0.482943
0.485132
0.487475
0.489972
0.49262
0.495418
0.498356
0.501425
0.504608
0.507884
0.511221
0.514578
0.517902
0.521124
0.524152
0.526872
0.529137
0.530761
0.531511
0.531092
0.52914
0.525201
0.518717
0.509009
0.495256
0.476488
0.451575
0.41925
0.378147
0.326944
0.264485
0.190287
0.104529
0.00886378
0.508438
0.508391
0.508269
0.508076
0.507822
0.507509
0.507138
0.50671
0.506226
0.505689
0.505103
0.504468
0.503788
0.503066
0.502303
0.501504
0.500669
0.499803
0.498907
0.497984
0.497037
0.496068
0.495079
0.494073
0.493053
0.49202