/*--------------------------------*- C++ -*----------------------------------*\
| =========                 |                                                 |
| \\      /  F ield         | OpenFOAM: The Open Source CFD Toolbox           |
|  \\    /   O peration     | Version:  2206                                  |
|   \\  /    A nd           | Website:  www.openfoam.com                      |
|    \\/     M anipulation  |                                                 |
\*---------------------------------------------------------------------------*/
FoamFile
{
    version     2.0;
    format      ascii;
    arch        "LSB;label=32;scalar=64";
    class       volVectorField;
    location    "18.0999";
    object      U;
}
// * * * * * * * * * * * * * * * * * * * * * * * * * * * * * * * * * * * * * //

dimensions      [0 1 -1 0 0 0 0];

internalField   nonuniform List<vector> 
4824
(
(1.47761 -8.79197e-05 0)
(1.47764 -0.000261733 0)
(1.47771 -0.000432407 0)
(1.47782 -0.000599307 0)
(1.47797 -0.000761827 0)
(1.47815 -0.000919448 0)
(1.47837 -0.0010717 0)
(1.47862 -0.00121813 0)
(1.4789 -0.00135838 0)
(1.47922 -0.00149212 0)
(1.47957 -0.00161911 0)
(1.47995 -0.00173914 0)
(1.48035 -0.00185206 0)
(1.48079 -0.00195774 0)
(1.48125 -0.00205609 0)
(1.48173 -0.00214702 0)
(1.48224 -0.00223046 0)
(1.48277 -0.00230635 0)
(1.48332 -0.00237463 0)
(1.48388 -0.00243525 0)
(1.48447 -0.00248814 0)
(1.48507 -0.00253323 0)
(1.48568 -0.00257044 0)
(1.4863 -0.00259968 0)
(1.48694 -0.00262084 0)
(1.48758 -0.00263379 0)
(1.48824 -0.0026384 0)
(1.48889 -0.0026345 0)
(1.48955 -0.00262191 0)
(1.49022 -0.0026004 0)
(1.49089 -0.00256977 0)
(1.49155 -0.00252969 0)
(1.49221 -0.0024799 0)
(1.49287 -0.00242008 0)
(1.49353 -0.00234993 0)
(1.49417 -0.00226904 0)
(1.49481 -0.0021771 0)
(1.49544 -0.00207359 0)
(1.49605 -0.00195819 0)
(1.49666 -0.00183027 0)
(1.49724 -0.00168954 0)
(1.49781 -0.0015352 0)
(1.49836 -0.00136702 0)
(1.49889 -0.00118403 0)
(1.4994 -0.000986002 0)
(1.49988 -0.000771907 0)
(1.50033 -0.000541264 0)
(1.50076 -0.000293347 0)
(1.50115 -2.70524e-05 0)
(1.50151 0.000257847 0)
(1.50184 0.000562891 0)
(1.50213 0.000888418 0)
(1.50238 0.0012356 0)
(1.50259 0.00160552 0)
(1.50275 0.002 0)
(1.50287 0.00242007 0)
(1.50293 0.0028673 0)
(1.50294 0.00334334 0)
(1.50289 0.00384991 0)
(1.50278 0.00438892 0)
(1.50261 0.00496252 0)
(1.50237 0.00557304 0)
(1.50205 0.00622307 0)
(1.50166 0.00691546 0)
(1.50118 0.00765338 0)
(1.50062 0.0084403 0)
(1.49996 0.00928013 0)
(1.4992 0.0101772 0)
(1.49833 0.0111363 0)
(1.49734 0.0121627 0)
(1.49623 0.0132626 0)
(1.49498 0.0144425 0)
(1.49359 0.01571 0)
(1.49205 0.0170735 0)
(1.49033 0.0185424 0)
(1.48844 0.0201274 0)
(1.48635 0.0218405 0)
(1.48405 0.0236952 0)
(1.48152 0.025707 0)
(1.47874 0.0278933 0)
(1.47569 0.0302741 0)
(1.47234 0.0328721 0)
(1.46867 0.0357134 0)
(1.46466 0.0388278 0)
(1.46026 0.04225 0)
(1.45544 0.0460199 0)
(1.45016 0.0501839 0)
(1.44438 0.054796 0)
(1.43805 0.0599196 0)
(1.43111 0.065629 0)
(1.4235 0.0720123 0)
(1.41517 0.0791735 0)
(1.40602 0.0872372 0)
(1.39599 0.0963524 0)
(1.38498 0.106699 0)
(1.37289 0.118494 0)
(1.35963 0.132005 0)
(1.34507 0.147556 0)
(1.3291 0.165553 0)
(1.3116 0.186498 0)
(1.29246 0.211027 0)
(1.27157 0.239947 0)
(1.24886 0.274301 0)
(1.22429 0.315467 0)
(1.19799 0.365276 0)
(1.16999 0.42635 0)
(1.1417 0.502235 0)
(1.11124 0.599217 0)
(1.09525 0.72397 0)
(1.05611 0.900151 0)
(1.20394 1.11793 0)
(1.0935 1.58168 0)
(1.47761 -0.00010892 0)
(1.47764 -0.000324682 0)
(1.47771 -0.000537097 0)
(1.47783 -0.000745337 0)
(1.47798 -0.000948628 0)
(1.47817 -0.00114629 0)
(1.47839 -0.00133772 0)
(1.47865 -0.00152234 0)
(1.47894 -0.00169964 0)
(1.47927 -0.00186919 0)
(1.47962 -0.00203066 0)
(1.48001 -0.00218374 0)
(1.48043 -0.00232822 0)
(1.48087 -0.0024639 0)
(1.48134 -0.00259063 0)
(1.48184 -0.0027083 0)
(1.48236 -0.00281679 0)
(1.4829 -0.00291602 0)
(1.48346 -0.00300592 0)
(1.48404 -0.00308641 0)
(1.48464 -0.00315741 0)
(1.48525 -0.00321885 0)
(1.48588 -0.00327064 0)
(1.48652 -0.0033127 0)
(1.48717 -0.0033449 0)
(1.48782 -0.00336713 0)
(1.48849 -0.00337924 0)
(1.48916 -0.00338106 0)
(1.48984 -0.00337241 0)
(1.49052 -0.00335306 0)
(1.4912 -0.00332279 0)
(1.49188 -0.00328129 0)
(1.49256 -0.00322825 0)
(1.49323 -0.00316337 0)
(1.4939 -0.00308634 0)
(1.49456 -0.00299672 0)
(1.49522 -0.00289418 0)
(1.49586 -0.0027782 0)
(1.49649 -0.00264842 0)
(1.49711 -0.00250422 0)
(1.49771 -0.00234523 0)
(1.4983 -0.00217073 0)
(1.49886 -0.00198025 0)
(1.49941 -0.00177311 0)
(1.49994 -0.00154859 0)
(1.50044 -0.00130615 0)
(1.50091 -0.00104479 0)
(1.50136 -0.000763931 0)
(1.50177 -0.000462707 0)
(1.50216 -0.000139903 0)
(1.50251 0.000204711 0)
(1.50282 0.000573118 0)
(1.5031 0.000965313 0)
(1.50333 0.00138384 0)
(1.50352 0.00182953 0)
(1.50367 0.00230398 0)
(1.50376 0.00280895 0)
(1.5038 0.00334623 0)
(1.50379 0.0039178 0)
(1.50372 0.00452582 0)
(1.50359 0.00517271 0)
(1.50339 0.00586114 0)
(1.50312 0.00659403 0)
(1.50278 0.00737464 0)
(1.50236 0.00820654 0)
(1.50185 0.00909372 0)
(1.50126 0.0100406 0)
(1.50057 0.0110521 0)
(1.49977 0.0121336 0)
(1.49887 0.0132912 0)
(1.49785 0.0145317 0)
(1.4967 0.0158627 0)
(1.49542 0.0172925 0)
(1.494 0.0188307 0)
(1.49242 0.020488 0)
(1.49067 0.0222761 0)
(1.48874 0.0242087 0)
(1.48662 0.0263007 0)
(1.48429 0.0285695 0)
(1.48173 0.0310344 0)
(1.47893 0.0337175 0)
(1.47586 0.0366438 0)
(1.4725 0.0398421 0)
(1.46883 0.0433453 0)
(1.46482 0.0471909 0)
(1.46044 0.0514226 0)
(1.45566 0.0560905 0)
(1.45045 0.0612528 0)
(1.44477 0.0669774 0)
(1.43857 0.0733436 0)
(1.43182 0.0804444 0)
(1.42447 0.0883894 0)
(1.41647 0.0973081 0)
(1.40777 0.107355 0)
(1.39832 0.118714 0)
(1.38807 0.131605 0)
(1.37697 0.146296 0)
(1.365 0.163109 0)
(1.35212 0.182438 0)
(1.33835 0.204768 0)
(1.32373 0.230698 0)
(1.30838 0.260977 0)
(1.29253 0.296547 0)
(1.27658 0.338616 0)
(1.26133 0.388743 0)
(1.2477 0.449002 0)
(1.23899 0.522093 0)
(1.23586 0.611881 0)
(1.25568 0.72194 0)
(1.28307 0.860152 0)
(1.38999 1.00361 0)
(1.52147 1.28302 0)
(1.47761 -0.000130574 0)
(1.47764 -0.000389591 0)
(1.47772 -0.000645035 0)
(1.47783 -0.000895874 0)
(1.47799 -0.00114115 0)
(1.47819 -0.00138002 0)
(1.47842 -0.00161173 0)
(1.47868 -0.00183555 0)
(1.47898 -0.00205085 0)
(1.47932 -0.00225709 0)
(1.47969 -0.00245382 0)
(1.48009 -0.00264067 0)
(1.48052 -0.00281734 0)
(1.48097 -0.00298359 0)
(1.48146 -0.00313921 0)
(1.48197 -0.00328404 0)
(1.4825 -0.00341797 0)
(1.48306 -0.00354088 0)
(1.48363 -0.00365267 0)
(1.48423 -0.00375328 0)
(1.48484 -0.00384262 0)
(1.48547 -0.00392061 0)
(1.48611 -0.00398716 0)
(1.48676 -0.0040422 0)
(1.48743 -0.0040856 0)
(1.4881 -0.00411725 0)
(1.48878 -0.004137 0)
(1.48947 -0.00414468 0)
(1.49017 -0.00414012 0)
(1.49086 -0.00412308 0)
(1.49156 -0.00409334 0)
(1.49225 -0.00405059 0)
(1.49295 -0.00399451 0)
(1.49364 -0.00392478 0)
(1.49433 -0.00384107 0)
(1.49501 -0.00374298 0)
(1.49568 -0.0036301 0)
(1.49634 -0.00350197 0)
(1.49699 -0.00335811 0)
(1.49763 -0.00319804 0)
(1.49825 -0.00302115 0)
(1.49885 -0.00282696 0)
(1.49944 -0.00261471 0)
(1.50001 -0.00238389 0)
(1.50055 -0.00213369 0)
(1.50108 -0.00186339 0)
(1.50157 -0.00157229 0)
(1.50204 -0.00125936 0)
(1.50248 -0.000923859 0)
(1.50289 -0.000564868 0)
(1.50327 -0.000180996 0)
(1.50361 0.000228109 0)
(1.50391 0.000664718 0)
(1.50418 0.0011298 0)
(1.5044 0.00162488 0)
(1.50457 0.0021517 0)
(1.5047 0.00271213 0)
(1.50479 0.00330812 0)
(1.50481 0.00394188 0)
(1.50479 0.0046158 0)
(1.5047 0.00533256 0)
(1.50455 0.0060951 0)
(1.50433 0.00690665 0)
(1.50405 0.00777082 0)
(1.50369 0.00869155 0)
(1.50325 0.00967325 0)
(1.50273 0.0107208 0)
(1.50211 0.0118396 0)
(1.50141 0.0130356 0)
(1.5006 0.0143157 0)
(1.49968 0.0156871 0)
(1.49864 0.0171582 0)
(1.49749 0.0187382 0)
(1.4962 0.0204376 0)
(1.49476 0.0222679 0)
(1.49318 0.0242421 0)
(1.49143 0.0263748 0)
(1.48951 0.0286825 0)
(1.4874 0.0311836 0)
(1.48508 0.033899 0)
(1.48255 0.0368525 0)
(1.47978 0.0400709 0)
(1.47676 0.0435847 0)
(1.47347 0.0474288 0)
(1.46989 0.051643 0)
(1.46599 0.0562728 0)
(1.46176 0.0613708 0)
(1.45716 0.0669975 0)
(1.45217 0.0732227 0)
(1.44678 0.0801277 0)
(1.44094 0.087807 0)
(1.43463 0.0963709 0)
(1.42784 0.105949 0)
(1.42054 0.116693 0)
(1.41271 0.128782 0)
(1.40435 0.142429 0)
(1.39546 0.157887 0)
(1.38609 0.175456 0)
(1.37629 0.195496 0)
(1.36617 0.218439 0)
(1.35591 0.244803 0)
(1.3458 0.275212 0)
(1.33627 0.310419 0)
(1.32798 0.351317 0)
(1.322 0.398976 0)
(1.31976 0.454571 0)
(1.32404 0.519453 0)
(1.33735 0.594473 0)
(1.36655 0.680023 0)
(1.41555 0.777042 0)
(1.48356 0.857199 0)
(1.63036 0.998071 0)
(1.47761 -0.000153022 0)
(1.47764 -0.000456793 0)
(1.47772 -0.000756789 0)
(1.47784 -0.00105171 0)
(1.47801 -0.00134039 0)
(1.47821 -0.00162182 0)
(1.47845 -0.00189508 0)
(1.47872 -0.00215928 0)
(1.47903 -0.00241367 0)
(1.47938 -0.00265759 0)
(1.47976 -0.00289048 0)
(1.48018 -0.00311189 0)
(1.48062 -0.00332147 0)
(1.48109 -0.00351889 0)
(1.48159 -0.00370394 0)
(1.48212 -0.00387642 0)
(1.48267 -0.00403618 0)
(1.48324 -0.00418311 0)
(1.48383 -0.0043171 0)
(1.48444 -0.00443808 0)
(1.48507 -0.00454598 0)
(1.48572 -0.00464071 0)
(1.48637 -0.0047222 0)
(1.48705 -0.00479038 0)
(1.48773 -0.00484513 0)
(1.48842 -0.00488634 0)
(1.48912 -0.00491388 0)
(1.48983 -0.00492758 0)
(1.49054 -0.00492725 0)
(1.49125 -0.00491269 0)
(1.49197 -0.00488365 0)
(1.49268 -0.00483985 0)
(1.4934 -0.00478091 0)
(1.49411 -0.00470656 0)
(1.49481 -0.00461643 0)
(1.49551 -0.00451013 0)
(1.4962 -0.0043872 0)
(1.49689 -0.00424724 0)
(1.49756 -0.00408969 0)
(1.49821 -0.0039141 0)
(1.49886 -0.00371983 0)
(1.49948 -0.00350634 0)
(1.50009 -0.00327297 0)
(1.50068 -0.00301902 0)
(1.50125 -0.0027438 0)
(1.5018 -0.00244653 0)
(1.50232 -0.00212633 0)
(1.50281 -0.00178244 0)
(1.50328 -0.00141377 0)
(1.50372 -0.00101936 0)
(1.50412 -0.000598264 0)
(1.50449 -0.000148935 0)
(1.50482 0.000329946 0)
(1.50512 0.000839763 0)
(1.50538 0.00138224 0)
(1.50559 0.00195921 0)
(1.50576 0.0025726 0)
(1.50588 0.00322456 0)
(1.50595 0.00391745 0)
(1.50597 0.00465389 0)
(1.50594 0.00543675 0)
(1.50584 0.00626922 0)
(1.50568 0.00715479 0)
(1.50546 0.00809736 0)
(1.50517 0.00910122 0)
(1.5048 0.0101711 0)
(1.50436 0.0113123 0)
(1.50383 0.0125307 0)
(1.50322 0.0138326 0)
(1.50251 0.0152254 0)
(1.5017 0.0167171 0)
(1.50079 0.0183164 0)
(1.49976 0.0200334 0)
(1.49862 0.0218791 0)
(1.49735 0.0238659 0)
(1.49594 0.0260075 0)
(1.49439 0.0283195 0)
(1.49268 0.0308193 0)
(1.49081 0.0335262 0)
(1.48875 0.0364622 0)
(1.48651 0.0396522 0)
(1.48407 0.043124 0)
(1.48142 0.0469093 0)
(1.47853 0.051044 0)
(1.4754 0.055569 0)
(1.47201 0.0605307 0)
(1.46835 0.0659823 0)
(1.4644 0.0719848 0)
(1.46015 0.0786079 0)
(1.45558 0.085932 0)
(1.45069 0.0940498 0)
(1.44546 0.103069 0)
(1.4399 0.113112 0)
(1.43401 0.124325 0)
(1.4278 0.136875 0)
(1.42132 0.150957 0)
(1.4146 0.166798 0)
(1.40775 0.184664 0)
(1.40088 0.204864 0)
(1.39417 0.227755 0)
(1.3879 0.253751 0)
(1.38243 0.283326 0)
(1.3783 0.317009 0)
(1.37626 0.355372 0)
(1.37735 0.399005 0)
(1.383 0.44839 0)
(1.39512 0.503866 0)
(1.4163 0.565197 0)
(1.44879 0.630693 0)
(1.50049 0.702135 0)
(1.56406 0.759665 0)
(1.66724 0.839137 0)
(1.47761 -0.00017638 0)
(1.47764 -0.000526683 0)
(1.47773 -0.000872989 0)
(1.47785 -0.0012137 0)
(1.47802 -0.00154744 0)
(1.47823 -0.00187299 0)
(1.47848 -0.00218924 0)
(1.47877 -0.00249518 0)
(1.47909 -0.00278988 0)
(1.47945 -0.00307258 0)
(1.47985 -0.00334263 0)
(1.48028 -0.00359949 0)
(1.48074 -0.00384273 0)
(1.48122 -0.00407201 0)
(1.48174 -0.00428706 0)
(1.48228 -0.00448766 0)
(1.48285 -0.00467368 0)
(1.48344 -0.00484497 0)
(1.48405 -0.00500146 0)
(1.48468 -0.00514307 0)
(1.48533 -0.00526973 0)
(1.486 -0.00538139 0)
(1.48668 -0.00547799 0)
(1.48737 -0.00555946 0)
(1.48807 -0.0056257 0)
(1.48878 -0.00567662 0)
(1.4895 -0.00571208 0)
(1.49023 -0.00573194 0)
(1.49096 -0.00573601 0)
(1.49169 -0.00572409 0)
(1.49243 -0.00569593 0)
(1.49317 -0.00565126 0)
(1.4939 -0.0055897 0)
(1.49463 -0.00551095 0)
(1.49536 -0.00541465 0)
(1.49608 -0.00530041 0)
(1.49679 -0.00516779 0)
(1.4975 -0.0050163 0)
(1.49819 -0.00484549 0)
(1.49887 -0.00465476 0)
(1.49954 -0.00444361 0)
(1.50019 -0.00421135 0)
(1.50082 -0.0039574 0)
(1.50143 -0.00368102 0)
(1.50203 -0.0033815 0)
(1.5026 -0.003058 0)
(1.50315 -0.00270976 0)
(1.50367 -0.00233573 0)
(1.50416 -0.00193508 0)
(1.50463 -0.00150666 0)
(1.50507 -0.00104931 0)
(1.50547 -0.00056158 0)
(1.50584 -4.21857e-05 0)
(1.50617 0.000510507 0)
(1.50646 0.00109825 0)
(1.50672 0.00172293 0)
(1.50693 0.0023866 0)
(1.50709 0.00309153 0)
(1.50721 0.00384025 0)
(1.50728 0.00463552 0)
(1.5073 0.0054804 0)
(1.50726 0.00637827 0)
(1.50717 0.00733287 0)
(1.50701 0.00834831 0)
(1.50679 0.00942915 0)
(1.5065 0.0105805 0)
(1.50614 0.0118078 0)
(1.50571 0.0131173 0)
(1.50519 0.014516 0)
(1.5046 0.0160113 0)
(1.50391 0.0176117 0)
(1.50313 0.0193266 0)
(1.50224 0.0211664 0)
(1.50126 0.0231426 0)
(1.50016 0.0252683 0)
(1.49894 0.0275577 0)
(1.49759 0.030027 0)
(1.49611 0.032694 0)
(1.49449 0.0355789 0)
(1.49272 0.0387043 0)
(1.49078 0.0420953 0)
(1.48869 0.0457806 0)
(1.48641 0.049792 0)
(1.48395 0.0541658 0)
(1.48129 0.0589427 0)
(1.47843 0.0641692 0)
(1.47536 0.0698976 0)
(1.47208 0.0761876 0)
(1.46857 0.0831069 0)
(1.46485 0.0907329 0)
(1.4609 0.0991538 0)
(1.45675 0.10847 0)
(1.45241 0.118798 0)
(1.44791 0.130267 0)
(1.44328 0.14303 0)
(1.4386 0.157258 0)
(1.43395 0.173146 0)
(1.42944 0.190917 0)
(1.42526 0.210821 0)
(1.42162 0.233136 0)
(1.41882 0.258167 0)
(1.41729 0.286241 0)
(1.41757 0.317689 0)
(1.42038 0.352821 0)
(1.42666 0.391882 0)
(1.43761 0.434964 0)
(1.45468 0.481875 0)
(1.47991 0.532173 0)
(1.51473 0.583855 0)
(1.56347 0.637406 0)
(1.62558 0.683181 0)
(1.70131 0.725366 0)
(1.47761 -0.00020078 0)
(1.47765 -0.00059969 0)
(1.47773 -0.000994337 0)
(1.47787 -0.00138282 0)
(1.47804 -0.00176349 0)
(1.47826 -0.00213493 0)
(1.47852 -0.00249583 0)
(1.47882 -0.00284502 0)
(1.47916 -0.00318142 0)
(1.47954 -0.00350413 0)
(1.47995 -0.00381242 0)
(1.48039 -0.00410567 0)
(1.48087 -0.0043834 0)
(1.48138 -0.00464523 0)
(1.48191 -0.00489087 0)
(1.48248 -0.00512011 0)
(1.48306 -0.00533278 0)
(1.48367 -0.00552879 0)
(1.48431 -0.00570805 0)
(1.48496 -0.00587052 0)
(1.48563 -0.00601615 0)
(1.48631 -0.00614491 0)
(1.48701 -0.00625677 0)
(1.48773 -0.00635166 0)
(1.48845 -0.00642952 0)
(1.48918 -0.00649027 0)
(1.48993 -0.0065338 0)
(1.49068 -0.00655995 0)
(1.49143 -0.00656857 0)
(1.49219 -0.00655945 0)
(1.49294 -0.00653235 0)
(1.4937 -0.00648701 0)
(1.49446 -0.00642306 0)
(1.49521 -0.00634016 0)
(1.49596 -0.00623797 0)
(1.49671 -0.00611609 0)
(1.49745 -0.00597407 0)
(1.49817 -0.00581146 0)
(1.49889 -0.00562774 0)
(1.4996 -0.00542238 0)
(1.50029 -0.00519477 0)
(1.50096 -0.00494435 0)
(1.50162 -0.0046704 0)
(1.50226 -0.00437228 0)
(1.50289 -0.00404919 0)
(1.50349 -0.00370038 0)
(1.50406 -0.0033249 0)
(1.50461 -0.00292193 0)
(1.50514 -0.00249038 0)
(1.50564 -0.00202921 0)
(1.50611 -0.00153703 0)
(1.50655 -0.00101264 0)
(1.50695 -0.000454519 0)
(1.50732 0.00013901 0)
(1.50765 0.000769713 0)
(1.50795 0.00143954 0)
(1.5082 0.00215064 0)
(1.50842 0.00290539 0)
(1.50859 0.00370643 0)
(1.50871 0.00455664 0)
(1.50878 0.00545924 0)
(1.50881 0.00641774 0)
(1.50878 0.00743605 0)
(1.50869 0.00851849 0)
(1.50855 0.00966983 0)
(1.50835 0.0108953 0)
(1.50808 0.0122008 0)
(1.50774 0.0135928 0)
(1.50733 0.0150783 0)
(1.50685 0.0166653 0)
(1.50629 0.0183625 0)
(1.50564 0.0201796 0)
(1.50491 0.0221274 0)
(1.50409 0.0242178 0)
(1.50317 0.0264641 0)
(1.50214 0.0288808 0)
(1.50101 0.0314846 0)
(1.49977 0.0342935 0)
(1.49841 0.0373279 0)
(1.49693 0.0406106 0)
(1.49532 0.0441668 0)
(1.49357 0.048025 0)
(1.49169 0.0522169 0)
(1.48966 0.0567782 0)
(1.48749 0.0617488 0)
(1.48516 0.0671739 0)
(1.48269 0.0731038 0)
(1.48008 0.0795958 0)
(1.47732 0.0867138 0)
(1.47443 0.0945304 0)
(1.47142 0.103127 0)
(1.46833 0.112596 0)
(1.46517 0.12304 0)
(1.462 0.134577 0)
(1.45888 0.147336 0)
(1.45588 0.161462 0)
(1.45313 0.177118 0)
(1.45076 0.194479 0)
(1.44896 0.213737 0)
(1.44798 0.235094 0)
(1.44814 0.258757 0)
(1.44983 0.284927 0)
(1.45358 0.313777 0)
(1.46003 0.345428 0)
(1.46997 0.379899 0)
(1.48439 0.417055 0)
(1.50438 0.456468 0)
(1.53133 0.49749 0)
(1.56634 0.538478 0)
(1.61083 0.578148 0)
(1.66569 0.612253 0)
(1.72805 0.637604 0)
(1.47761 -0.000226378 0)
(1.47765 -0.000676289 0)
(1.47774 -0.00112162 0)
(1.47788 -0.00156012 0)
(1.47807 -0.00198988 0)
(1.47829 -0.00240922 0)
(1.47857 -0.00281664 0)
(1.47888 -0.00321076 0)
(1.47924 -0.00359037 0)
(1.47963 -0.00395445 0)
(1.48006 -0.00430215 0)
(1.48052 -0.00463281 0)
(1.48102 -0.0049459 0)
(1.48155 -0.005241 0)
(1.48211 -0.00551784 0)
(1.48269 -0.00577619 0)
(1.4833 -0.00601592 0)
(1.48394 -0.00623696 0)
(1.48459 -0.00643926 0)
(1.48527 -0.00662279 0)
(1.48596 -0.00678756 0)
(1.48667 -0.00693355 0)
(1.48739 -0.00706078 0)
(1.48813 -0.00716921 0)
(1.48888 -0.0072588 0)
(1.48963 -0.00732949 0)
(1.4904 -0.0073812 0)
(1.49117 -0.00741378 0)
(1.49195 -0.0074271 0)
(1.49273 -0.00742094 0)
(1.49351 -0.00739508 0)
(1.4943 -0.00734926 0)
(1.49508 -0.00728315 0)
(1.49586 -0.00719636 0)
(1.49663 -0.00708855 0)
(1.4974 -0.00695935 0)
(1.49817 -0.00680828 0)
(1.49892 -0.00663491 0)
(1.49966 -0.0064387 0)
(1.5004 -0.00621914 0)
(1.50111 -0.00597563 0)
(1.50182 -0.00570755 0)
(1.50251 -0.00541428 0)
(1.50318 -0.00509507 0)
(1.50383 -0.00474923 0)
(1.50446 -0.00437588 0)
(1.50506 -0.00397424 0)
(1.50565 -0.00354332 0)
(1.50621 -0.00308213 0)
(1.50674 -0.00258943 0)
(1.50724 -0.00206408 0)
(1.50772 -0.00150469 0)
(1.50816 -0.00090971 0)
(1.50857 -0.00027749 0)
(1.50895 0.000393776 0)
(1.50929 0.00110609 0)
(1.50959 0.00186167 0)
(1.50985 0.00266295 0)
(1.51008 0.00351265 0)
(1.51026 0.00441375 0)
(1.51039 0.00536954 0)
(1.51048 0.00638367 0)
(1.51052 0.00746016 0)
(1.51051 0.00860348 0)
(1.51045 0.00981853 0)
(1.51033 0.0111107 0)
(1.51015 0.0124861 0)
(1.50992 0.0139513 0)
(1.50962 0.0155136 0)
(1.50926 0.0171811 0)
(1.50883 0.0189627 0)
(1.50833 0.0208683 0)
(1.50775 0.022909 0)
(1.5071 0.0250966 0)
(1.50636 0.0274447 0)
(1.50554 0.0299681 0)
(1.50464 0.0326832 0)
(1.50364 0.0356083 0)
(1.50255 0.0387635 0)
(1.50136 0.0421714 0)
(1.50007 0.045857 0)
(1.49869 0.0498481 0)
(1.4972 0.0541755 0)
(1.49561 0.0588739 0)
(1.49392 0.0639816 0)
(1.49214 0.0695415 0)
(1.49026 0.0756013 0)
(1.4883 0.0822143 0)
(1.48628 0.0894399 0)
(1.48421 0.0973443 0)
(1.48211 0.106001 0)
(1.48003 0.115492 0)
(1.47799 0.125907 0)
(1.47608 0.137346 0)
(1.47435 0.149919 0)
(1.4729 0.163742 0)
(1.47186 0.178944 0)
(1.47137 0.195657 0)
(1.47165 0.214019 0)
(1.47292 0.234164 0)
(1.4755 0.256218 0)
(1.47976 0.280281 0)
(1.48615 0.306412 0)
(1.49523 0.334598 0)
(1.50763 0.36472 0)
(1.52411 0.396503 0)
(1.54545 0.429434 0)
(1.57249 0.462745 0)
(1.60597 0.495164 0)
(1.64627 0.525143 0)
(1.69371 0.550478 0)
(1.74712 0.568998 0)
(1.47761 -0.000253355 0)
(1.47765 -0.000757018 0)
(1.47775 -0.00125572 0)
(1.47789 -0.00174683 0)
(1.47809 -0.00222811 0)
(1.47833 -0.00269764 0)
(1.47862 -0.00315366 0)
(1.47895 -0.0035946 0)
(1.47932 -0.00401909 0)
(1.47974 -0.00442598 0)
(1.48019 -0.00481435 0)
(1.48067 -0.00518348 0)
(1.48119 -0.0055328 0)
(1.48175 -0.00586191 0)
(1.48233 -0.00617052 0)
(1.48294 -0.00645845 0)
(1.48357 -0.00672561 0)
(1.48423 -0.00697196 0)
(1.48491 -0.0071975 0)
(1.48561 -0.00740226 0)
(1.48633 -0.00758628 0)
(1.48706 -0.00774961 0)
(1.48781 -0.00789229 0)
(1.48857 -0.00801433 0)
(1.48935 -0.00811574 0)
(1.49013 -0.00819646 0)
(1.49092 -0.00825644 0)
(1.49172 -0.00829558 0)
(1.49252 -0.00831372 0)
(1.49333 -0.00831068 0)
(1.49414 -0.00828625 0)
(1.49495 -0.00824016 0)
(1.49576 -0.00817211 0)
(1.49657 -0.00808169 0)
(1.49737 -0.00796856 0)
(1.49817 -0.00783233 0)
(1.49896 -0.00767258 0)
(1.49974 -0.00748882 0)
(1.50051 -0.00728056 0)
(1.50127 -0.00704725 0)
(1.50202 -0.00678833 0)
(1.50275 -0.0065032 0)
(1.50347 -0.00619119 0)
(1.50417 -0.00585164 0)
(1.50485 -0.00548378 0)
(1.50551 -0.00508683 0)
(1.50616 -0.00465995 0)
(1.50677 -0.00420219 0)
(1.50737 -0.00371247 0)
(1.50794 -0.00318975 0)
(1.50848 -0.00263273 0)
(1.50899 -0.00204004 0)
(1.50947 -0.00141015 0)
(1.50993 -0.00074143 0)
(1.51035 -3.20438e-05 0)
(1.51073 0.000720029 0)
(1.51108 0.00151705 0)
(1.5114 0.00236149 0)
(1.51168 0.00325608 0)
(1.51192 0.00420387 0)
(1.51211 0.00520822 0)
(1.51227 0.00627284 0)
(1.51238 0.00740183 0)
(1.51245 0.00859972 0)
(1.51247 0.00987153 0)
(1.51244 0.0112228 0)
(1.51237 0.0126595 0)
(1.51224 0.0141886 0)
(1.51205 0.0158173 0)
(1.51182 0.0175538 0)
(1.51152 0.0194072 0)
(1.51116 0.0213875 0)
(1.51075 0.0235055 0)
(1.51027 0.0257734 0)
(1.50972 0.0282046 0)
(1.50911 0.0308137 0)
(1.50843 0.0336171 0)
(1.50768 0.0366327 0)
(1.50686 0.0398804 0)
(1.50597 0.0433821 0)
(1.50502 0.047162 0)
(1.50399 0.0512469 0)
(1.5029 0.0556666 0)
(1.50174 0.0604537 0)
(1.50053 0.0656445 0)
(1.49928 0.0712792 0)
(1.49798 0.0774018 0)
(1.49667 0.0840613 0)
(1.49536 0.0913114 0)
(1.49407 0.0992112 0)
(1.49283 0.107825 0)
(1.4917 0.117225 0)
(1.49072 0.127486 0)
(1.48996 0.138692 0)
(1.4895 0.15093 0)
(1.48944 0.164292 0)
(1.48991 0.178874 0)
(1.49107 0.194771 0)
(1.4931 0.212072 0)
(1.49624 0.230858 0)
(1.50076 0.251187 0)
(1.507 0.273088 0)
(1.51534 0.296538 0)
(1.52623 0.321441 0)
(1.54017 0.3476 0)
(1.5577 0.374683 0)
(1.57936 0.402173 0)
(1.60567 0.429347 0)
(1.63702 0.455222 0)
(1.67355 0.478593 0)
(1.7151 0.498047 0)
(1.76106 0.512157 0)
(1.47761 -0.000281919 0)
(1.47765 -0.0008425 0)
(1.47775 -0.00139766 0)
(1.47791 -0.00194434 0)
(1.47812 -0.00247992 0)
(1.47838 -0.00300218 0)
(1.47868 -0.00350913 0)
(1.47903 -0.00399896 0)
(1.47942 -0.00447014 0)
(1.47986 -0.00492141 0)
(1.48033 -0.00535177 0)
(1.48084 -0.00576046 0)
(1.48139 -0.0061469 0)
(1.48197 -0.00651072 0)
(1.48257 -0.00685165 0)
(1.48321 -0.00716959 0)
(1.48387 -0.00746447 0)
(1.48456 -0.00773635 0)
(1.48527 -0.00798527 0)
(1.48599 -0.00821136 0)
(1.48674 -0.0084147 0)
(1.4875 -0.00859541 0)
(1.48828 -0.00875358 0)
(1.48907 -0.00888927 0)
(1.48987 -0.00900253 0)
(1.49068 -0.00909335 0)
(1.4915 -0.00916168 0)
(1.49233 -0.00920746 0)
(1.49316 -0.00923056 0)
(1.49399 -0.00923079 0)
(1.49483 -0.00920796 0)
(1.49567 -0.0091618 0)
(1.4965 -0.00909203 0)
(1.49734 -0.00899826 0)
(1.49817 -0.0088801 0)
(1.499 -0.00873718 0)
(1.49982 -0.00856908 0)
(1.50063 -0.00837533 0)
(1.50143 -0.00815542 0)
(1.50222 -0.00790885 0)
(1.503 -0.00763503 0)
(1.50377 -0.00733339 0)
(1.50452 -0.00700329 0)
(1.50525 -0.00664406 0)
(1.50597 -0.00625496 0)
(1.50666 -0.00583529 0)
(1.50734 -0.00538412 0)
(1.50799 -0.00490055 0)
(1.50862 -0.00438363 0)
(1.50923 -0.0038322 0)
(1.50981 -0.00324503 0)
(1.51036 -0.00262078 0)
(1.51089 -0.00195796 0)
(1.51138 -0.00125494 0)
(1.51185 -0.0005099 0)
(1.51229 0.000279197 0)
(1.51269 0.00111456 0)
(1.51306 0.00199869 0)
(1.51339 0.00293435 0)
(1.51369 0.00392459 0)
(1.51395 0.00497277 0)
(1.51418 0.00608264 0)
(1.51437 0.00725833 0)
(1.51451 0.0085044 0)
(1.51462 0.00982589 0)
(1.51468 0.0112283 0)
(1.51471 0.0127179 0)
(1.51469 0.0143013 0)
(1.51462 0.015986 0)
(1.51451 0.0177801 0)
(1.51435 0.0196926 0)
(1.51414 0.0217335 0)
(1.51389 0.0239135 0)
(1.51358 0.0262448 0)
(1.51323 0.0287403 0)
(1.51283 0.0314146 0)
(1.51237 0.0342836 0)
(1.51188 0.0373647 0)
(1.51133 0.0406771 0)
(1.51074 0.044242 0)
(1.5101 0.0480825 0)
(1.50943 0.052224 0)
(1.50873 0.0566946 0)
(1.50801 0.061525 0)
(1.50726 0.0667486 0)
(1.50652 0.0724025 0)
(1.50579 0.0785267 0)
(1.50509 0.0851653 0)
(1.50446 0.0923658 0)
(1.50391 0.10018 0)
(1.50349 0.108663 0)
(1.50324 0.117876 0)
(1.50323 0.12788 0)
(1.50351 0.138743 0)
(1.50419 0.150532 0)
(1.50536 0.163316 0)
(1.50714 0.177163 0)
(1.50969 0.192133 0)
(1.51319 0.20828 0)
(1.51783 0.225639 0)
(1.52388 0.244222 0)
(1.53161 0.264004 0)
(1.54134 0.284912 0)
(1.55343 0.306804 0)
(1.56824 0.329452 0)
(1.58617 0.352515 0)
(1.60757 0.375522 0)
(1.63275 0.397854 0)
(1.66189 0.418734 0)
(1.695 0.437254 0)
(1.73178 0.452396 0)
(1.77165 0.463136 0)
(1.47761 -0.000312318 0)
(1.47766 -0.000933459 0)
(1.47777 -0.00154863 0)
(1.47793 -0.00215425 0)
(1.47815 -0.00274728 0)
(1.47843 -0.00332517 0)
(1.47875 -0.00388562 0)
(1.47912 -0.00442661 0)
(1.47954 -0.00494644 0)
(1.48 -0.00544373 0)
(1.4805 -0.00591744 0)
(1.48104 -0.00636679 0)
(1.48161 -0.00679122 0)
(1.48222 -0.0071904 0)
(1.48285 -0.00756414 0)
(1.48352 -0.00791241 0)
(1.48421 -0.00823525 0)
(1.48493 -0.00853277 0)
(1.48566 -0.00880515 0)
(1.48642 -0.00905257 0)
(1.4872 -0.00927523 0)
(1.48799 -0.00947329 0)
(1.4888 -0.00964692 0)
(1.48962 -0.00979624 0)
(1.49045 -0.00992135 0)
(1.49129 -0.0100223 0)
(1.49214 -0.010099 0)
(1.49299 -0.0101515 0)
(1.49385 -0.0101797 0)
(1.49472 -0.0101833 0)
(1.49558 -0.0101623 0)
(1.49645 -0.0101163 0)
(1.49732 -0.010045 0)
(1.49818 -0.00994815 0)
(1.49905 -0.00982527 0)
(1.4999 -0.00967598 0)
(1.50076 -0.00949988 0)
(1.5016 -0.00929651 0)
(1.50243 -0.0090654 0)
(1.50326 -0.008806 0)
(1.50407 -0.00851779 0)
(1.50487 -0.00820018 0)
(1.50565 -0.00785261 0)
(1.50642 -0.00747433 0)
(1.50717 -0.00706483 0)
(1.5079 -0.00662317 0)
(1.50861 -0.00614866 0)
(1.5093 -0.00564041 0)
(1.50997 -0.00509742 0)
(1.51062 -0.00451861 0)
(1.51124 -0.00390281 0)
(1.51184 -0.00324873 0)
(1.5124 -0.00255492 0)
(1.51295 -0.00181979 0)
(1.51346 -0.00104154 0)
(1.51395 -0.000218185 0)
(1.5144 0.000652457 0)
(1.51483 0.00157286 0)
(1.51522 0.00254576 0)
(1.51558 0.00357417 0)
(1.51591 0.00466145 0)
(1.51621 0.00581133 0)
(1.51647 0.0070279 0)
(1.5167 0.00831572 0)
(1.51689 0.0096798 0)
(1.51705 0.0111257 0)
(1.51717 0.0126594 0)
(1.51726 0.0142877 0)
(1.51731 0.0160179 0)
(1.51732 0.0178581 0)
(1.5173 0.0198172 0)
(1.51725 0.0219048 0)
(1.51715 0.0241318 0)
(1.51703 0.0265096 0)
(1.51686 0.0290513 0)
(1.51667 0.0317707 0)
(1.51645 0.0346832 0)
(1.51619 0.0378056 0)
(1.51592 0.0411562 0)
(1.51562 0.0447551 0)
(1.51531 0.0486241 0)
(1.51498 0.0527871 0)
(1.51466 0.0572702 0)
(1.51435 0.0621015 0)
(1.51406 0.0673119 0)
(1.51381 0.0729346 0)
(1.51362 0.0790056 0)
(1.51351 0.0855635 0)
(1.51351 0.09265 0)
(1.51365 0.100309 0)
(1.51398 0.108588 0)
(1.51454 0.117534 0)
(1.5154 0.1272 0)
(1.51663 0.137635 0)
(1.51831 0.148891 0)
(1.52055 0.161016 0)
(1.52345 0.174052 0)
(1.52717 0.188035 0)
(1.53186 0.202988 0)
(1.53771 0.218914 0)
(1.54493 0.23579 0)
(1.55375 0.253559 0)
(1.56443 0.272118 0)
(1.57725 0.291305 0)
(1.59247 0.310887 0)
(1.61037 0.330545 0)
(1.63117 0.349863 0)
(1.65506 0.368326 0)
(1.68207 0.385317 0)
(1.71213 0.400147 0)
(1.74494 0.412087 0)
(1.78 0.420443 0)
(1.47761 -0.00034484 0)
(1.47766 -0.00103075 0)
(1.47778 -0.00171002 0)
(1.47796 -0.00237846 0)
(1.47819 -0.00303253 0)
(1.47849 -0.00366927 0)
(1.47883 -0.00428609 0)
(1.47923 -0.00488071 0)
(1.47967 -0.00545128 0)
(1.48016 -0.00599632 0)
(1.48068 -0.00651475 0)
(1.48125 -0.00700582 0)
(1.48186 -0.00746903 0)
(1.4825 -0.00790414 0)
(1.48317 -0.00831107 0)
(1.48386 -0.00868989 0)
(1.48459 -0.00904078 0)
(1.48534 -0.00936397 0)
(1.48611 -0.00965976 0)
(1.4869 -0.00992843 0)
(1.4877 -0.0101703 0)
(1.48853 -0.0103856 0)
(1.48937 -0.0105746 0)
(1.49022 -0.0107375 0)
(1.49108 -0.0108744 0)
(1.49195 -0.0109854 0)
(1.49283 -0.0110706 0)
(1.49372 -0.0111299 0)
(1.49461 -0.0111632 0)
(1.49551 -0.0111704 0)
(1.49641 -0.0111513 0)
(1.49731 -0.0111056 0)
(1.49821 -0.0110331 0)
(1.4991 -0.0109334 0)
(1.5 -0.0108061 0)
(1.50089 -0.0106508 0)
(1.50177 -0.010467 0)
(1.50265 -0.0102544 0)
(1.50352 -0.0100125 0)
(1.50438 -0.00974074 0)
(1.50522 -0.00943861 0)
(1.50606 -0.00910559 0)
(1.50688 -0.00874109 0)
(1.50768 -0.00834451 0)
(1.50847 -0.00791516 0)
(1.50924 -0.00745241 0)
(1.50999 -0.00695548 0)
(1.51072 -0.00642351 0)
(1.51142 -0.00585558 0)
(1.51211 -0.0052507 0)
(1.51277 -0.00460776 0)
(1.51341 -0.00392553 0)
(1.51403 -0.00320263 0)
(1.51462 -0.00243753 0)
(1.51518 -0.0016285 0)
(1.51571 -0.000773623 0)
(1.51622 0.000129258 0)
(1.5167 0.00108252 0)
(1.51716 0.00208884 0)
(1.51758 0.00315119 0)
(1.51798 0.00427285 0)
(1.51834 0.0054575 0)
(1.51868 0.00670917 0)
(1.51899 0.00803235 0)
(1.51927 0.00943197 0)
(1.51953 0.0109135 0)
(1.51975 0.0124828 0)
(1.51995 0.0141466 0)
(1.52012 0.0159121 0)
(1.52026 0.0177871 0)
(1.52037 0.0197803 0)
(1.52047 0.0219013 0)
(1.52054 0.0241602 0)
(1.52058 0.0265686 0)
(1.52061 0.0291386 0)
(1.52062 0.0318837 0)
(1.52062 0.0348185 0)
(1.52061 0.0379591 0)
(1.5206 0.0413227 0)
(1.52059 0.0449281 0)
(1.52059 0.0487958 0)
(1.5206 0.0529477 0)
(1.52065 0.0574077 0)
(1.52073 0.0622017 0)
(1.52088 0.0673572 0)
(1.5211 0.0729038 0)
(1.52141 0.0788731 0)
(1.52185 0.0852988 0)
(1.52244 0.0922162 0)
(1.52322 0.0996622 0)
(1.52424 0.107675 0)
(1.52554 0.116294 0)
(1.52718 0.125558 0)
(1.52924 0.135504 0)
(1.5318 0.146168 0)
(1.53495 0.157581 0)
(1.5388 0.169767 0)
(1.54348 0.18274 0)
(1.54914 0.196499 0)
(1.55592 0.211026 0)
(1.56402 0.226275 0)
(1.57361 0.242171 0)
(1.58491 0.258595 0)
(1.59811 0.275382 0)
(1.61342 0.292309 0)
(1.63102 0.309089 0)
(1.65105 0.325366 0)
(1.67359 0.340716 0)
(1.69863 0.354656 0)
(1.72604 0.366667 0)
(1.75555 0.376225 0)
(1.78674 0.382854 0)
(1.47761 -0.000379834 0)
(1.47767 -0.00113541 0)
(1.47779 -0.00188351 0)
(1.47798 -0.00261922 0)
(1.47824 -0.00333841 0)
(1.47855 -0.00403763 0)
(1.47892 -0.00471395 0)
(1.47935 -0.00536487 0)
(1.47982 -0.00598838 0)
(1.48034 -0.00658293 0)
(1.4809 -0.00714745 0)
(1.4815 -0.00768124 0)
(1.48214 -0.00818393 0)
(1.48282 -0.00865541 0)
(1.48352 -0.00909575 0)
(1.48425 -0.00950519 0)
(1.48501 -0.00988407 0)
(1.4858 -0.0102328 0)
(1.4866 -0.0105518 0)
(1.48743 -0.0108415 0)
(1.48827 -0.0111023 0)
(1.48913 -0.0113346 0)
(1.49 -0.0115388 0)
(1.49088 -0.0117151 0)
(1.49178 -0.0118637 0)
(1.49268 -0.0119848 0)
(1.4936 -0.0120783 0)
(1.49452 -0.0121445 0)
(1.49544 -0.012183 0)
(1.49637 -0.0121939 0)
(1.4973 -0.0121769 0)
(1.49824 -0.0121318 0)
(1.49917 -0.0120583 0)
(1.5001 -0.011956 0)
(1.50103 -0.0118246 0)
(1.50196 -0.0116636 0)
(1.50288 -0.0114726 0)
(1.50379 -0.0112511 0)
(1.50469 -0.0109988 0)
(1.50559 -0.0107151 0)
(1.50647 -0.0103995 0)
(1.50734 -0.0100515 0)
(1.5082 -0.00967062 0)
(1.50904 -0.00925625 0)
(1.50986 -0.00880782 0)
(1.51067 -0.00832467 0)
(1.51146 -0.00780608 0)
(1.51223 -0.0072513 0)
(1.51298 -0.00665951 0)