/*--------------------------------*- C++ -*----------------------------------*\
| =========                 |                                                 |
| \\      /  F ield         | OpenFOAM: The Open Source CFD Toolbox           |
|  \\    /   O peration     | Version:  2206                                  |
|   \\  /    A nd           | Website:  www.openfoam.com                      |
|    \\/     M anipulation  |                                                 |
\*---------------------------------------------------------------------------*/
FoamFile
{
    version     2.0;
    format      ascii;
    arch        "LSB;label=32;scalar=64";
    class       surfaceScalarField;
    location    "19.5999";
    object      phi_0;
}
// * * * * * * * * * * * * * * * * * * * * * * * * * * * * * * * * * * * * * //

dimensions      [0 3 -1 0 0 0 0];

oriented        oriented;

internalField   nonuniform List<scalar> 
3488
(
7.37326e-06
-1.02928e-07
-8.94254e-08
7.51405e-06
7.2436e-08
-2.13228e-07
7.60123e-06
2.28683e-07
-3.15864e-07
7.63474e-06
3.49542e-07
-3.83052e-07
7.60734e-06
4.45915e-07
-4.18516e-07
7.50952e-06
5.0992e-07
-4.121e-07
7.34579e-06
5.36636e-07
-3.72908e-07
7.13502e-06
5.17971e-07
-3.07198e-07
6.8973e-06
4.70554e-07
-2.32832e-07
6.65164e-06
4.13192e-07
-1.67535e-07
6.41443e-06
3.59707e-07
-1.22494e-07
6.19557e-06
3.21377e-07
-1.02516e-07
6.001e-06
3.03352e-07
-1.08783e-07
5.83253e-06
3.04202e-07
-1.35731e-07
5.68863e-06
3.17583e-07
-1.73682e-07
5.56624e-06
3.34796e-07
-2.12411e-07
5.46209e-06
3.46876e-07
-2.42728e-07
5.37361e-06
3.45806e-07
-2.5732e-07
5.29993e-06
3.24824e-07
-2.51142e-07
5.24202e-06
2.79307e-07
-2.214e-07
5.20127e-06
2.09055e-07
-1.68311e-07
5.17895e-06
1.16105e-07
-9.37864e-08
5.17611e-06
4.97531e-09
-2.13326e-09
5.19339e-06
-1.18165e-07
1.0089e-07
5.23061e-06
-2.4572e-07
2.08494e-07
5.28631e-06
-3.69321e-07
3.1362e-07
5.35857e-06
-4.82127e-07
4.09876e-07
5.44528e-06
-5.79149e-07
4.92437e-07
5.54413e-06
-6.56441e-07
5.57588e-07
5.65267e-06
-7.11338e-07
6.02797e-07
5.7686e-06
-7.42432e-07
6.26503e-07
5.89009e-06
-7.49344e-07
6.27857e-07
6.01557e-06
-7.32196e-07
6.06716e-07
6.14359e-06
-6.9151e-07
5.63484e-07
6.2722e-06
-6.28747e-07
5.00135e-07
6.39787e-06
-5.46347e-07
4.20679e-07
6.51499e-06
-4.47739e-07
3.30626e-07
6.61676e-06
-3.38509e-07
2.36736e-07
6.69777e-06
-2.24999e-07
1.43985e-07
6.75341e-06
-1.13512e-07
5.78763e-08
6.78097e-06
-9.19773e-09
-1.83657e-08
6.77742e-06
8.40283e-08
-8.04801e-08
6.73979e-06
1.63184e-07
-1.2555e-07
6.66883e-06
2.2412e-07
-1.5316e-07
6.56971e-06
2.6529e-07
-1.66171e-07
6.45166e-06
2.87451e-07
-1.69399e-07
6.32554e-06
2.9452e-07
-1.68399e-07
6.20117e-06
2.91763e-07
-1.67394e-07
6.08502e-06
2.843e-07
-1.68151e-07
5.98048e-06
2.75066e-07
-1.70522e-07
5.88907e-06
2.64227e-07
-1.72819e-07
5.81113e-06
2.50275e-07
-1.72332e-07
5.74629e-06
2.30925e-07
-1.66088e-07
5.69417e-06
2.03517e-07
-1.51398e-07
5.65495e-06
1.65247e-07
-1.26025e-07
5.62862e-06
1.1508e-07
-8.87511e-08
5.6152e-06
5.33336e-08
-3.99149e-08
5.61441e-06
-1.89132e-08
1.97073e-08
5.62596e-06
-9.92242e-08
8.76753e-08
5.64932e-06
-1.83878e-07
1.60519e-07
5.68318e-06
-2.67873e-07
2.34008e-07
5.72587e-06
-3.46395e-07
3.03705e-07
5.77576e-06
-4.1592e-07
3.66026e-07
5.83131e-06
-4.73812e-07
4.1827e-07
5.89106e-06
-5.18309e-07
4.58555e-07
5.95381e-06
-5.48422e-07
4.85672e-07
6.01845e-06
-5.63727e-07
4.99084e-07
6.0839e-06
-5.6408e-07
4.98634e-07
6.14915e-06
-5.49553e-07
4.84304e-07
6.21323e-06
-5.20479e-07
4.56398e-07
6.27521e-06
-4.77876e-07
4.15898e-07
6.33384e-06
-4.23319e-07
3.64684e-07
6.38717e-06
-3.58752e-07
3.05427e-07
6.43272e-06
-2.86614e-07
2.41061e-07
6.46811e-06
-2.09754e-07
1.74359e-07
6.49159e-06
-1.31317e-07
1.07844e-07
6.50188e-06
-5.4213e-08
4.39201e-08
6.49809e-06
1.88962e-08
-1.51031e-08
6.47946e-06
8.55361e-08
-6.69073e-08
6.44605e-06
1.43517e-07
-1.10105e-07
6.39956e-06
1.90798e-07
-1.44316e-07
6.34305e-06
2.26419e-07
-1.69909e-07
6.28047e-06
2.50362e-07
-1.87778e-07
6.21617e-06
2.63204e-07
-1.98906e-07
6.15383e-06
2.66356e-07
-2.04015e-07
6.09582e-06
2.61274e-07
-2.03267e-07
6.0438e-06
2.48369e-07
-1.96345e-07
5.99904e-06
2.27431e-07
-1.82668e-07
5.96248e-06
1.9822e-07
-1.61659e-07
5.93472e-06
1.60675e-07
-1.32918e-07
5.916e-06
1.15267e-07
-9.65526e-08
5.90634e-06
6.29707e-08
-5.33021e-08
5.90559e-06
5.30505e-09
-4.55552e-09
5.91337e-06
-5.53869e-08
4.75997e-08
5.92873e-06
-1.15703e-07
1.00341e-07
5.95055e-06
-1.72385e-07
1.50574e-07
5.97763e-06
-2.22935e-07
1.95849e-07
6.00876e-06
-2.65426e-07
2.34301e-07
6.04277e-06
-2.98587e-07
2.64575e-07
6.07873e-06
-3.21804e-07
2.85839e-07
6.11595e-06
-3.34956e-07
2.97742e-07
6.15373e-06
-3.38095e-07
3.00318e-07
6.19134e-06
-3.31399e-07
2.93783e-07
6.22806e-06
-3.15131e-07
2.78411e-07
6.26317e-06
-2.89892e-07
2.54786e-07
6.29602e-06
-2.5676e-07
2.23904e-07
6.32588e-06
-2.16978e-07
1.87118e-07
6.3517e-06
-1.7192e-07
1.46106e-07
6.37231e-06
-1.23232e-07
1.02619e-07
6.3868e-06
-7.27818e-08
5.82911e-08
6.39471e-06
-2.25166e-08
1.46129e-08
6.3958e-06
2.59419e-08
-2.70359e-08
6.39009e-06
7.10945e-08
-6.5386e-08
6.37773e-06
1.11604e-07
-9.92427e-08
6.35898e-06
1.46299e-07
-1.27548e-07
6.33448e-06
1.74207e-07
-1.49707e-07
6.30541e-06
1.94623e-07
-1.6555e-07
6.27321e-06
2.07327e-07
-1.75133e-07
6.23933e-06
2.12624e-07
-1.78739e-07
6.20511e-06
2.1096e-07
-1.76743e-07
2.02574e-07
-1.69424e-07
7.41334e-06
-2.97654e-07
7.57728e-06
-9.15024e-08
7.70283e-06
1.03133e-07
7.77812e-06
2.74251e-07
7.8071e-06
4.16934e-07
7.78879e-06
5.28234e-07
7.71494e-06
6.10481e-07
7.57596e-06
6.56958e-07
7.38099e-06
6.65519e-07
7.15105e-06
6.43133e-07
6.90727e-06
6.03491e-07
6.6676e-06
5.61046e-07
6.44464e-06
5.26313e-07
6.24618e-06
5.0266e-07
6.07581e-06
4.87945e-07
5.93366e-06
4.76949e-07
5.81752e-06
4.63017e-07
5.72455e-06
4.38782e-07
5.65294e-06
3.96429e-07
5.60141e-06
3.30841e-07
5.56925e-06
2.41212e-07
5.55613e-06
1.29229e-07
5.56201e-06
-9.08903e-10
5.58666e-06
-1.42809e-07
5.62886e-06
-2.8792e-07
5.68626e-06
-4.26729e-07
5.75659e-06
-5.52458e-07
5.83738e-06
-6.5994e-07
5.92641e-06
-7.45472e-07
6.02192e-06
-8.06841e-07
6.12235e-06
-8.42867e-07
6.22601e-06
-8.52998e-07
6.33109e-06
-8.37277e-07
6.436e-06
-7.96419e-07
6.53963e-06
-7.32382e-07
6.64121e-06
-6.47923e-07
6.73939e-06
-5.45924e-07
6.8309e-06
-4.3002e-07
6.91128e-06
-3.05374e-07
6.97608e-06
-1.78314e-07
7.02153e-06
-5.46427e-08
7.04486e-06
6.0699e-08
7.04364e-06
1.644e-07
7.01421e-06
2.5355e-07
6.95513e-06
3.24366e-07
6.86886e-06
3.73728e-07
6.76176e-06
4.01616e-07
6.64329e-06
4.10231e-07
6.52383e-06
4.03761e-07
6.41124e-06
3.87653e-07
6.31021e-06
3.6526e-07
6.22351e-06
3.36973e-07
6.15231e-06
3.02125e-07
6.09677e-06
2.59065e-07
6.05658e-06
2.05431e-07
6.03102e-06
1.4064e-07
6.01924e-06
6.51119e-08
6.02025e-06
-1.99218e-08
6.03313e-06
-1.12102e-07
6.05664e-06
-2.07388e-07
6.08896e-06
-3.00192e-07
6.12846e-06
-3.85899e-07
6.17344e-06
-4.60896e-07
6.2222e-06
-5.22572e-07
6.27329e-06
-5.69395e-07
6.3257e-06
-6.00838e-07
6.37893e-06
-6.16951e-07
6.43236e-06
-6.1751e-07
6.48501e-06
-6.02208e-07
6.53578e-06
-5.71249e-07
6.58377e-06
-5.25861e-07
6.62826e-06
-4.67815e-07
6.66861e-06
-3.99097e-07
6.70389e-06
-3.21893e-07
6.73273e-06
-2.38594e-07
6.75378e-06
-1.52366e-07
6.76611e-06
-6.65453e-08
6.76897e-06
1.60319e-08
6.76178e-06
9.27271e-08
6.74415e-06
1.61152e-07
6.71596e-06
2.18987e-07
6.67791e-06
2.64468e-07
6.63196e-06
2.96313e-07
6.58099e-06
3.14174e-07
6.5282e-06
3.19147e-07
6.47645e-06
3.1302e-07
6.42851e-06
2.96313e-07
6.3867e-06
2.69241e-07
6.35246e-06
2.32454e-07
6.32644e-06
1.86696e-07
6.30885e-06
1.3286e-07
6.29966e-06
7.21565e-08
6.2987e-06
6.26957e-09
6.30532e-06
-6.20084e-08
6.31837e-06
-1.28759e-07
6.33678e-06
-1.9079e-07
6.35928e-06
-2.45436e-07
6.38457e-06
-2.90712e-07
6.41144e-06
-3.25458e-07
6.43906e-06
-3.49428e-07
6.46713e-06
-3.63023e-07
6.49556e-06
-3.66527e-07
6.52404e-06
-3.59882e-07
6.55183e-06
-3.42918e-07
6.57818e-06
-3.16243e-07
6.60248e-06
-2.81055e-07
6.62417e-06
-2.38669e-07
6.6427e-06
-1.90457e-07
6.6574e-06
-1.37932e-07
6.66753e-06
-8.29111e-08
6.67277e-06
-2.77511e-08
6.67305e-06
2.56649e-08
6.66846e-06
7.56804e-08
6.65927e-06
1.20791e-07
6.64592e-06
1.59648e-07
6.62897e-06
1.9116e-07
6.60897e-06
2.14623e-07
6.58651e-06
2.29788e-07
6.5623e-06
2.36834e-07
6.53713e-06
2.36128e-07
2.27608e-07
7.39323e-06
-4.6627e-07
7.54912e-06
-2.47395e-07
7.67778e-06
-2.5525e-08
7.76892e-06
1.83114e-07
7.81996e-06
3.6589e-07
7.83123e-06
5.16962e-07
7.80184e-06
6.39878e-07
7.72305e-06
7.35746e-07
7.59441e-06
7.94154e-07
7.42306e-06
8.14483e-07
7.22252e-06
8.0403e-07
7.01001e-06
7.73564e-07
6.80182e-06
7.34504e-07
6.6096e-06
6.94874e-07
6.44047e-06
6.57078e-07
6.29766e-06
6.19754e-07
6.18159e-06
5.79087e-07
6.09135e-06
5.29026e-07
6.02569e-06
4.62089e-07
5.98238e-06
3.74155e-07
5.95948e-06
2.64111e-07
5.95532e-06
1.33384e-07
5.9686e-06
-1.41815e-08
5.99797e-06
-1.72181e-07
6.04116e-06
-3.31112e-07
6.09581e-06
-4.81384e-07
6.15976e-06
-6.16407e-07
6.23049e-06
-7.30668e-07
6.30559e-06
-8.20573e-07
6.38349e-06
-8.84737e-07
6.46357e-06
-9.22948e-07
6.54547e-06
-9.34898e-07
6.6278e-06
-9.19603e-07
6.70863e-06
-8.77248e-07
6.78708e-06
-8.10838e-07
6.86293e-06
-7.23767e-07
6.9359e-06
-6.18901e-07
7.00533e-06
-4.99448e-07
7.0692e-06
-3.69245e-07
7.12449e-06
-2.33607e-07
7.16857e-06
-9.8717e-08
7.19926e-06
3.00073e-08
7.21402e-06
1.49644e-07
7.21005e-06
2.57514e-07
7.18513e-06
3.49293e-07
7.13775e-06
4.21107e-07
7.06943e-06
4.69936e-07
6.98465e-06
4.95007e-07
6.89044e-06
4.97975e-07
6.79355e-06
4.84538e-07
6.70071e-06
4.58098e-07
6.61753e-06
4.20153e-07
6.54733e-06
3.72326e-07
6.49155e-06
3.14845e-07
6.45044e-06
2.46547e-07
6.42359e-06
1.67486e-07
6.41021e-06
7.84879e-08
6.40935e-06
-1.90576e-08
6.41982e-06
-1.22571e-07
6.43967e-06
-2.2724e-07
6.46698e-06
-3.27502e-07
6.50003e-06
-4.1895e-07
6.53705e-06
-4.97913e-07
6.57628e-06
-5.618e-07
6.61614e-06
-6.09263e-07
6.65569e-06
-6.40383e-07
6.69497e-06
-6.56237e-07
6.73437e-06
-6.56908e-07
6.7731e-06
-6.40939e-07
6.80997e-06
-6.08119e-07
6.84422e-06
-5.60105e-07
6.87517e-06
-4.98771e-07
6.90239e-06
-4.2631e-07
6.92557e-06
-3.45077e-07
6.94439e-06
-2.57415e-07
6.95833e-06
-1.66301e-07
6.967e-06
-7.52233e-08
6.97022e-06
1.28191e-08
6.96755e-06
9.53938e-08
6.95865e-06
1.70052e-07
6.94373e-06
2.33908e-07
6.92304e-06
2.85153e-07
6.8969e-06
3.22454e-07
6.8663e-06
3.44774e-07
6.83272e-06
3.52731e-07
6.79658e-06
3.49156e-07
6.7606e-06
3.32301e-07
6.72797e-06
3.01868e-07
6.70028e-06
2.6014e-07
6.67855e-06
2.08426e-07
6.6633e-06
1.48118e-07
6.65465e-06
8.08023e-08
6.6525e-06
8.41473e-09
6.65594e-06
-6.54408e-08
6.66396e-06
-1.36784e-07
6.67568e-06
-2.02507e-07
6.69016e-06
-2.59912e-07
6.70641e-06
-3.06971e-07
6.72345e-06
-3.42496e-07
6.74044e-06
-3.66414e-07
6.75715e-06
-3.79735e-07
6.77421e-06
-3.83585e-07
6.79248e-06
-3.7815e-07
6.81079e-06
-3.61229e-07
6.82845e-06
-3.33906e-07
6.84486e-06
-2.97461e-07
6.85943e-06
-2.53244e-07
6.87165e-06
-2.02677e-07
6.88101e-06
-1.47291e-07
6.88698e-06
-8.88852e-08
6.88932e-06
-3.00895e-08
6.88811e-06
2.68794e-08
6.88356e-06
8.02311e-08
6.87598e-06
1.28367e-07
6.86588e-06
1.69752e-07
6.85397e-06
2.03063e-07
6.84113e-06
2.27466e-07
6.82794e-06
2.42974e-07
6.81445e-06
2.50329e-07
6.79993e-06
2.50651e-07
2.42861e-07
7.32883e-06
-5.9686e-07
7.46112e-06
-3.79686e-07
7.58193e-06
-1.46332e-07
7.67944e-06
8.56001e-08
7.7455e-06
2.99832e-07
7.77427e-06
4.88188e-07
7.76648e-06
6.47672e-07
7.72488e-06
7.77341e-07
7.64746e-06
8.71573e-07
7.53487e-06
9.27071e-07
7.39233e-06
9.46572e-07
7.22982e-06
9.36076e-07
7.06078e-06
9.03542e-07
6.89834e-06
8.57313e-07
6.75157e-06
8.03855e-07
6.62553e-06
7.45787e-07
6.52291e-06
6.81709e-07
6.44494e-06
6.06997e-07
6.3908e-06
5.16234e-07
6.35832e-06
4.06633e-07
6.34507e-06
2.7736e-07
6.34884e-06
1.29609e-07
6.36764e-06
-3.29825e-08
6.39915e-06
-2.03692e-07
6.44036e-06
-3.72317e-07
6.48909e-06
-5.30112e-07
6.54334e-06
-6.70661e-07
6.60074e-06
-7.88067e-07
6.6589e-06
-8.78737e-07
6.71596e-06
-9.41791e-07
6.77138e-06
-9.7837e-07
6.82647e-06
-9.8999e-07
6.88192e-06
-9.7505e-07
6.93466e-06
-9.29991e-07
6.98486e-06
-8.61039e-07
7.03309e-06
-7.71992e-07
7.07979e-06
-6.656e-07
7.12519e-06
-5.44852e-07
7.16876e-06
-4.12817e-07
7.20853e-06
-2.73379e-07
7.24209e-06
-1.32272e-07
7.26634e-06
5.75194e-09
7.27942e-06
1.3657e-07
7.28255e-06
2.54387e-07
7.27652e-06
3.55318e-07
7.26022e-06
4.37408e-07
7.23187e-06
4.98284e-07
7.18924e-06
5.37632e-07
7.13252e-06
5.54696e-07
7.06568e-06
5.5138e-07
6.99493e-06
5.28851e-07
6.92786e-06
4.87223e-07
6.86933e-06
4.30854e-07
6.82151e-06
3.62668e-07
6.78539e-06
2.82665e-07
6.76126e-06
1.91612e-07
6.74882e-06
9.09298e-08
6.74733e-06
-1.75636e-08
6.75524e-06
-1.30487e-07
6.77026e-06
-2.42259e-07
6.79057e-06
-3.47804e-07
6.81452e-06
-4.42904e-07
6.84076e-06
-5.24156e-07
6.868e-06
-5.89036e-07
6.89483e-06
-6.36091e-07
6.91997e-06
-6.65523e-07
6.94334e-06
-6.79615e-07
6.96711e-06
-6.80673e-07
6.99076e-06
-6.6459e-07
7.01251e-06
-6.29872e-07
7.0321e-06
-5.79693e-07
7.04907e-06
-5.15738e-07
7.06312e-06
-4.40359e-07
7.07412e-06
-3.56078e-07
7.08208e-06
-2.65378e-07
7.087e-06
-1.71221e-07
7.08912e-06
-7.73422e-08
7.08889e-06
1.30521e-08
7.08649e-06
9.77865e-08
7.08213e-06
1.74414e-07
7.07598e-06
2.40063e-07
7.0683e-06
2.92834e-07
7.05955e-06
3.31199e-07
7.04975e-06
3.54574e-07
7.03807e-06
3.64406e-07
7.02253e-06
3.64702e-07
7.004e-06
3.50826e-07
6.98575e-06
3.20124e-07
6.96912e-06
2.76769e-07
6.95517e-06
2.22373e-07
6.94447e-06
1.58818e-07
6.93703e-06
8.82454e-08
6.93283e-06
1.26141e-08
6.93101e-06
-6.36186e-08
6.9311e-06
-1.36877e-07
6.93288e-06
-2.04288e-07
6.93621e-06
-2.63239e-07
6.94094e-06
-3.11703e-07
6.94678e-06
-3.48331e-07
6.95298e-06
-3.72617e-07
6.95906e-06
-3.85818e-07
6.96554e-06
-3.90065e-07
6.97446e-06
-3.87073e-07
6.98434e-06
-3.71103e-07
6.99431e-06
-3.43874e-07
7.00375e-06
-3.06904e-07
7.01208e-06
-2.61574e-07
7.01881e-06
-2.0941e-07
7.02357e-06
-1.52048e-07
7.02604e-06
-9.13515e-08
7.02614e-06
-3.01873e-08
7.02406e-06
2.89565e-08
7.0201e-06
8.41872e-08
7.01463e-06
1.3384e-07
7.00803e-06
1.76348e-07
7.00088e-06
2.1022e-07
6.99399e-06
2.34351e-07
6.98815e-06
2.48813e-07
6.98342e-06
2.55066e-07
6.97832e-06
2.5575e-07
2.48426e-07
7.21681e-06
7.31543e-06
7.41546e-06
7.50542e-06
7.57566e-06
7.61903e-06
7.63371e-06
7.62147e-06
7.58374e-06
7.52025e-06
7.4342e-06
7.33029e-06
7.21401e-06
7.09548e-06
6.98463e-06
6.88803e-06
6.81003e-06
6.75302e-06
6.71649e-06
6.69863e-06
6.69722e-06
6.71e-06
6.73447e-06
6.76711e-06
6.80446e-06
6.84435e-06
6.88483e-06
6.92436e-06
6.96159e-06
6.99471e-06
7.02331e-06
7.04942e-06
7.07365e-06
7.09395e-06
7.11236e-06
7.13052e-06
7.15068e-06
7.17397e-06
7.1993e-06
7.22444e-06
7.24534e-06
7.26012e-06
7.26966e-06
7.27426e-06
7.27414e-06
7.26941e-06
7.25953e-06
7.24459e-06
7.22316e-06
7.19427e-06
7.15909e-06
7.12218e-06
7.08571e-06
7.05426e-06
7.0302e-06
7.01431e-06
7.00675e-06
7.00706e-06
7.01334e-06
7.02343e-06
7.03549e-06
7.04842e-06
7.06161e-06
7.07473e-06
7.08725e-06
7.09857e-06
7.10767e-06
7.11596e-06
7.12271e-06
7.12696e-06
7.12926e-06
7.13023e-06
7.13043e-06
7.13019e-06
7.1295e-06
7.12803e-06
7.12519e-06
7.12082e-06
7.11554e-06
7.1102e-06
7.10537e-06
7.10184e-06
7.09999e-06
7.09966e-06
7.09997e-06
7.10021e-06
7.10012e-06
7.09955e-06
7.09849e-06
7.09684e-06
7.09439e-06
7.09103e-06
7.08633e-06
7.0806e-06
7.07439e-06
7.06828e-06
7.06285e-06
7.05874e-06
7.05639e-06
7.05562e-06
7.05575e-06
7.05637e-06
7.05885e-06
7.06213e-06
7.06546e-06
7.06847e-06
7.07084e-06
7.07239e-06
7.07302e-06
7.07265e-06
7.07109e-06
7.06826e-06
7.06414e-06
7.05914e-06
7.05412e-06
7.04996e-06
7.04704e-06
7.04549e-06
7.04519e-06
7.04531e-06
2.47353e-07
-2.3392e-07
2.23935e-08
-2.54536e-07
2.06161e-08
-2.7094e-07
1.6404e-08
-2.81665e-07
1.07243e-08
-2.86445e-07
4.78068e-09
-2.86127e-07
-3.1838e-10
-2.82329e-07
-3.79803e-09
-2.77206e-07
-5.12296e-09
-2.73053e-07
-4.1528e-09
-2.71835e-07
-1.21776e-09
-2.74828e-07
2.9928e-09
-2.82552e-07
7.72402e-09
-2.94783e-07
1.22305e-08
-3.10631e-07
1.58478e-08
-3.28729e-07
1.80987e-08
-3.47305e-07
1.85759e-08
-3.64659e-07
1.73543e-08
-3.79232e-07
1.45721e-08
-3.89731e-07
1.04994e-08
-3.95464e-07
5.73298e-09
-3.96328e-07
8.64222e-10
-3.92392e-07
-3.93589e-09
-3.83764e-07
-8.62825e-09
-3.71114e-07
-1.26496e-08
-3.55283e-07
-1.58317e-08
-3.37193e-07
-1.80896e-08
-3.177e-07
-1.94931e-08
-2.97516e-07
-2.01838e-08
-2.7727e-07
-2.02458e-08
-2.57506e-07
-1.97649e-08
-2.38629e-07
-1.88765e-08
-2.20917e-07
-1.7712e-08
-2.04585e-07
-1.63325e-08
-1.89779e-07
-1.48053e-08
-1.76586e-07
-1.31936e-08
-1.65062e-07
-1.15237e-08
-1.55249e-07
-9.8125e-09
-1.47171e-07
-8.0787e-09
-1.40859e-07
-6.31147e-09
-1.36269e-07
-4.58999e-09
-1.33384e-07
-2.88518e-09
-1.32297e-07
-1.08714e-09
-1.32657e-07
3.59602e-10
-1.34447e-07
1.79018e-09
-1.37448e-07
3.00149e-09
-1.41526e-07
4.07759e-09
-1.46344e-07
4.81838e-09
-1.51677e-07
5.33272e-09
-1.57272e-07
5.59492e-09
-1.62857e-07
5.58535e-09
-1.68136e-07
5.27858e-09
-1.72946e-07
4.80987e-09
-1.76966e-07
4.02077e-09
-1.79853e-07
2.88665e-09
-1.81234e-07
1.3805e-09
-1.8109e-07
-1.43611e-10
-1.79034e-07
-2.05593e-09
-1.74799e-07
-4.23463e-09
-1.68252e-07
-6.54775e-09
-1.59335e-07
-8.9164e-09
-1.48106e-07
-1.12289e-08
-1.34676e-07
-1.343e-08
-1.19223e-07
-1.54532e-08
-1.02021e-07
-1.72022e-08
-8.34059e-08
-1.8615e-08
-6.37338e-08
-1.96721e-08
-4.33113e-08
-2.04225e-08
-2.24969e-08
-2.08144e-08
-1.6144e-09
-2.08825e-08
1.90692e-08
-2.06836e-08
3.93284e-08
-2.02592e-08
5.90013e-08
-1.96729e-08
7.79116e-08
-1.89102e-08
9.58724e-08
-1.79609e-08
1.12733e-07
-1.68606e-08
1.28349e-07
-1.56159e-08
1.42588e-07
-1.42387e-08
1.5532e-07
-1.27326e-08
1.66425e-07
-1.11049e-08
1.75806e-07
-9.38113e-09
1.83409e-07
-7.60246e-09
1.89233e-07
-5.82454e-09
1.93347e-07
-4.11371e-09
1.9589e-07
-2.54275e-09
1.97082e-07
-1.19278e-09
1.97254e-07
-1.72049e-10
1.96721e-07
5.33859e-10
1.95831e-07
8.8997e-10
1.95016e-07
8.14295e-10
1.94596e-07
4.20107e-10
1.94871e-07
-2.75192e-10
1.9618e-07
-1.30851e-09
1.98718e-07
-2.5378e-09
2.0259e-07
-3.87275e-09
2.07814e-07
-5.22354e-09
2.14309e-07
-6.49468e-09
2.21913e-07
-7.60453e-09
2.30408e-07
-8.49486e-09
2.39525e-07
-9.11728e-09
2.48971e-07
-9.44515e-09
2.58453e-07
-9.48243e-09
2.67675e-07
-9.22176e-09
2.76387e-07
-8.71213e-09
2.84358e-07
-7.97076e-09
2.9143e-07
-7.07184e-09
2.97462e-07
-6.03261e-09
3.02395e-07
-4.93279e-09
3.06162e-07
-3.76727e-09
3.08792e-07
-2.62983e-09
3.10268e-07
-1.47582e-09
3.10697e-07
-4.28816e-10
3.10152e-07
5.45058e-10
3.0871e-07
1.44175e-09
3.06472e-07
2.23821e-09
3.03551e-07
2.92126e-09
3.00082e-07
3.46873e-09
2.96213e-07
3.86937e-09
2.92123e-07
4.08978e-09
2.87992e-07
4.13085e-09
2.84035e-07
3.95665e-09
-3.39059e-07
4.56031e-08
-3.59548e-07
4.11049e-08
-3.74472e-07
3.13282e-08
-3.82168e-07
1.84198e-08
-3.82641e-07
5.25364e-09
-3.77021e-07
-5.93855e-09
-3.67511e-07
-1.33083e-08
-3.56719e-07
-1.59141e-08
-3.46708e-07
-1.41646e-08
-3.40083e-07
-7.84239e-09
-3.37701e-07
6.10879e-10
-3.40528e-07
1.05509e-08
-3.48296e-07
1.99987e-08
-3.59858e-07
2.74092e-08
-3.73532e-07
3.17734e-08
-3.87432e-07
3.2475e-08
-3.99706e-07
2.96293e-08
-4.08398e-07
2.32637e-08
-4.12518e-07
1.46197e-08
-4.11297e-07
4.5112e-09
-4.05091e-07
-5.34169e-09
-3.93598e-07
-1.54283e-08
-3.77602e-07
-2.46242e-08
-3.57805e-07
-3.24468e-08
-3.35004e-07
-3.86329e-08
-3.09984e-07
-4.31094e-08
-2.83501e-07
-4.59761e-08
-2.56263e-07
-4.74219e-08
-2.28874e-07
-4.76348e-08
-2.01889e-07
-4.67494e-08
-1.75703e-07
-4.50629e-08
-1.50668e-07
-4.27472e-08
-1.26996e-07
-4.00047e-08
-1.04842e-07
-3.69591e-08
-8.42983e-08
-3.37372e-08
-6.54144e-08
-3.04075e-08
-4.82173e-08
-2.70096e-08
-3.27238e-08
-2.35722e-08
-1.89011e-08
-2.01342e-08
-6.74558e-09
-1.67455e-08
3.78119e-09
-1.34119e-08
1.30907e-08
-1.03967e-08
2.09441e-08
-7.49377e-09
2.76298e-08
-4.89549e-09
3.32775e-08
-2.64622e-09
3.82722e-08
-9.17168e-10
4.27041e-08
3.86476e-10
4.68327e-08
1.20417e-09
5.09056e-08
1.522e-09
5.51684e-08
1.32256e-09
5.98425e-08
6.04379e-10
6.50474e-08
-3.95016e-10
7.12095e-08
-2.14128e-09
7.86171e-08
-4.52097e-09
8.74916e-08
-7.49403e-09
9.83198e-08
-1.09718e-08
1.11247e-07
-1.49831e-08
1.26448e-07
-1.94358e-08
1.4407e-07
-2.41694e-08
1.64147e-07
-2.89937e-08
1.86621e-07
-3.37027e-08
2.11302e-07
-3.81114e-08
2.37909e-07
-4.20596e-08
2.66114e-07
-4.54072e-08
2.95555e-07
-4.80561e-08
3.25846e-07
-4.99634e-08
3.56564e-07
-5.114e-08
3.87366e-07
-5.16163e-08
4.1794e-07
-5.14568e-08
4.48009e-07
-5.07527e-08
4.7734e-07
-4.959e-08
5.05709e-07
-4.80422e-08
5.32963e-07
-4.61644e-08
5.58984e-07
-4.39814e-08
5.83621e-07
-4.14977e-08
6.06729e-07
-3.87242e-08
6.28167e-07
-3.56766e-08
6.47808e-07
-3.23735e-08
6.65545e-07
-2.8842e-08
6.81298e-07
-2.51344e-08
6.9503e-07
-2.13339e-08
7.06755e-07
-1.75498e-08
7.16557e-07
-1.39152e-08
7.246e-07
-1.05858e-08
7.31131e-07
-7.72411e-09
7.36435e-07
-5.4756e-09
7.409e-07
-3.93118e-09
7.44939e-07
-3.1493e-09
7.48921e-07
-3.16826e-09
7.53285e-07
-3.94361e-09
7.58409e-07
-5.39952e-09
7.64536e-07
-7.43533e-09
7.71877e-07
-9.87828e-09
7.80544e-07
-1.25397e-08
7.90545e-07
-1.52244e-08
8.01795e-07
-1.77447e-08
8.14127e-07
-1.99367e-08
8.273e-07
-2.16679e-08
8.41031e-07
-2.28484e-08
8.55014e-07
-2.34285e-08
8.68924e-07
-2.33922e-08
8.82476e-07
-2.27735e-08
8.95392e-07
-2.16281e-08
9.07468e-07
-2.00475e-08
9.18523e-07
-1.81268e-08
9.28446e-07
-1.5955e-08
9.37156e-07
-1.36433e-08
9.44631e-07
-1.1242e-08
9.50872e-07
-8.87064e-09
9.55943e-07
-6.54709e-09
9.59896e-07
-4.38124e-09
9.62775e-07
-2.33484e-09
9.64769e-07
-5.51828e-10
9.65952e-07
1.05569e-09
9.66431e-07
2.44157e-09
9.66338e-07
3.56251e-09
9.65825e-07
4.3816e-09
9.65063e-07
4.85181e-09
9.6423e-07
4.96452e-09
4.6346e-09
-1.99298e-08
6.41873e-08
-3.5588e-08
5.67631e-08
-4.52331e-08
4.09734e-08
-4.71398e-08
2.03265e-08
-4.21372e-08
2.50961e-10
-3.10012e-08
-1.70746e-08
-1.60024e-08
-2.83071e-08
5.53574e-10
-3.247e-08
1.55286e-08
-2.91397e-08
2.78509e-08
-2.01648e-08
3.55752e-08
-7.1134e-09
3.86299e-08
7.4963e-09
3.74287e-08
2.11998e-08
3.30665e-08
3.17715e-08
2.71564e-08
3.76835e-08
2.11738e-08
3.84577e-08
1.70821e-08
3.37209e-08
1.62285e-08
2.41172e-08
2.00849e-08
1.07633e-08
2.7739e-08
-3.14283e-09
4.08115e-08
-1.84142e-08
5.88543e-08
-3.34711e-08
8.14149e-08
-4.71848e-08
1.07882e-07
-5.89143e-08
1.37541e-07
-6.82919e-08
1.69627e-07
-7.51947e-08
2.03352e-07
-7.97015e-08
2.37952e-07
-8.20217e-08
2.72705e-07
-8.23879e-08
3.07025e-07
-8.1069e-08
3.40362e-07
-7.84004e-08
3.72346e-07
-7.47307e-08
4.02724e-07
-7.03829e-08
4.31397e-07
-6.56318e-08
4.58344e-07
-6.0685e-08
4.83587e-07
-5.56503e-08
5.07156e-07
-5.05785e-08
5.29091e-07
-4.55071e-08
5.49456e-07
-4.04989e-08
5.68338e-07
-3.56278e-08
5.8588e-07
-3.09534e-08
6.02032e-07
-2.65495e-08
6.16967e-07
-2.24286e-08
6.30789e-07
-1.87167e-08
6.43686e-07
-1.55437e-08
6.55793e-07
-1.30244e-08
6.67356e-07
-1.11767e-08
6.78563e-07
-1.00019e-08
6.89586e-07
-9.5013e-09
7.0061e-07
-9.70157e-09
7.11847e-07
-1.06322e-08
7.23739e-07
-1.22879e-08
7.36426e-07
-1.48274e-08
7.50187e-07
-1.82828e-08
7.65354e-07
-2.26607e-08
7.82304e-07
-2.79215e-08
8.01308e-07
-3.39869e-08
8.22566e-07
-4.06942e-08
8.46192e-07
-4.77957e-08
8.72194e-07
-5.49952e-08
9.00466e-07
-6.19754e-08
9.30789e-07
-6.84342e-08
9.62834e-07
-7.41048e-08
9.962e-07
-7.87731e-08
1.03044e-06
-8.22994e-08
1.0651e-06
-8.46175e-08
1.09969e-06
-8.57331e-08
1.1338e-06
-8.57271e-08
1.16708e-06
-8.47366e-08
1.19925e-06
-8.2918e-08
1.23007e-06
-8.04113e-08
1.25936e-06
-7.73335e-08
1.28699e-06
-7.37928e-08
1.31287e-06
-6.98677e-08
1.33697e-06
-6.55947e-08
1.35922e-06
-6.09779e-08
1.37957e-06
-5.60234e-08
1.39795e-06
-5.07514e-08
1.41431e-06
-4.52042e-08
1.42864e-06
-3.94584e-08
1.44094e-06
-3.36367e-08
1.45128e-06
-2.78875e-08
1.45976e-06
-2.23947e-08
1.46656e-06
-1.73944e-08
1.47198e-06
-1.31412e-08
1.47636e-06
-9.85291e-09
1.48011e-06
-7.68674e-09
1.48366e-06
-6.69489e-09
1.4874e-06
-6.90955e-09
1.49178e-06
-8.32254e-09
1.49718e-06
-1.07967e-08
1.50388e-06
-1.41388e-08
1.51209e-06
-1.80894e-08
1.52191e-06
-2.23555e-08
1.53331e-06
-2.66317e-08
1.54619e-06
-3.0624e-08
1.56033e-06
-3.40724e-08
1.57543e-06
-3.67706e-08
1.59116e-06
-3.85805e-08
1.60716e-06
-3.94279e-08
1.62307e-06
-3.92998e-08
1.63855e-06
-3.82471e-08
1.65329e-06
-3.63733e-08
1.66706e-06
-3.38208e-08
1.67968e-06
-3.07413e-08
1.69102e-06
-2.72964e-08
1.70101e-06
-2.36296e-08
1.70964e-06
-1.98713e-08
1.71691e-06
-1.61413e-08
1.7229e-06
-1.25361e-08
1.72767e-06
-9.15154e-09
1.73136e-06
-6.0254e-09
1.73401e-06
-3.21005e-09
1.73578e-06
-7.11155e-10
1.73679e-06
1.43729e-09
1.73714e-06
3.20997e-09
1.73697e-06
4.55183e-09
1.73643e-06
5.38577e-09
1.7357e-06
5.69653e-09
5.32997e-09
6.95048e-07
8.09639e-08
6.80726e-07
7.10857e-08
6.73046e-07
4.8653e-08
6.74561e-07
1.88117e-08
6.84575e-07
-9.7633e-09
7.01599e-07
-3.40984e-08
7.23228e-07
-4.99359e-08
7.46719e-07
-5.59617e-08
7.69885e-07
-5.23049e-08
7.89977e-07
-4.02575e-08
8.0509e-07
-2.22263e-08
8.14902e-07
-2.31535e-09
8.20089e-07
1.60123e-08
8.21788e-07
3.00725e-08
8.21435e-07
3.80373e-08
8.20415e-07
3.9477e-08
8.20576e-07
3.35602e-08
8.24212e-07
2.04811e-08
8.31844e-07
3.13155e-09
8.44467e-07
-1.57658e-08
8.61944e-07
-3.58912e-08
8.83907e-07
-5.54344e-08
9.10101e-07
-7.33791e-08
9.40166e-07
-8.89788e-08
9.73551e-07
-1.01677e-07
1.00953e-06
-1.1117e-07
1.04724e-06
-1.17412e-07
1.08579e-06
-1.20575e-07
1.1244e-06
-1.21e-07
1.16245e-06
-1.19117e-07
1.19943e-06
-1.15376e-07
1.23494e-06
-1.10244e-07
1.26875e-06
-1.04191e-07
1.30077e-06
-9.76491e-08
1.33103e-06
-9.09488e-08
1.35963e-06
-8.42486e-08
1.38663e-06
-7.75835e-08
1.4121e-06
-7.09754e-08
1.43611e-06
-6.45123e-08
1.45878e-06
-5.82899e-08
1.48017e-06
-5.23461e-08
1.50029e-06
-4.66694e-08
1.51915e-06
-4.12903e-08
1.5368e-06
-3.63614e-08
1.55333e-06
-3.2082e-08
1.5689e-06
-2.85863e-08
1.58364e-06
-2.59236e-08
1.59773e-06
-2.409e-08
1.61131e-06
-2.30817e-08
1.62456e-06
-2.29473e-08
1.63772e-06
-2.37991e-08
1.65115e-06
-2.57134e-08
1.66516e-06
-2.88424e-08
1.68013e-06
-3.32443e-08
1.69644e-06
-3.89777e-08
1.71454e-06
-4.60209e-08
1.73481e-06
-5.4253e-08
1.75754e-06
-6.34279e-08
1.78293e-06
-7.31825e-08
1.81101e-06
-8.30787e-08
1.84167e-06
-9.26376e-08
1.87463e-06
-1.01389e-07
1.90945e-06
-1.08922e-07
1.94559e-06
-1.14918e-07
1.98248e-06
-1.19187e-07
2.01949e-06
-1.21629e-07
2.05602e-06
-1.22264e-07
2.09153e-06
-1.2124e-07
2.12558e-06
-1.18778e-07
2.15778e-06
-1.15119e-07
2.18785e-06
-1.10486e-07
2.21561e-06
-1.05093e-07
2.24096e-06
-9.91459e-08
2.26389e-06
-9.27897e-08
2.28439e-06
-8.60951e-08
2.30251e-06
-7.91054e-08
2.31834e-06
-7.18454e-08
2.3319e-06
-6.43182e-08
2.34325e-06
-5.65563e-08
2.35242e-06
-4.86274e-08
2.35946e-06
-4.06766e-08
2.36447e-06
-3.28924e-08
2.36759e-06
-2.5514e-08
2.36906e-06
-1.88678e-08
2.36924e-06
-1.33202e-08
2.36857e-06
-9.1819e-09
2.36755e-06
-6.66403e-09
2.36664e-06
-5.78812e-09
2.36636e-06
-6.62517e-09
2.36721e-06
-9.18062e-09
2.36964e-06
-1.32251e-08
2.37396e-06
-1.8459e-08
2.38037e-06
-2.45017e-08
2.38895e-06
-3.09311e-08
2.39962e-06
-3.73054e-08
2.41219e-06
-4.31943e-08
2.42634e-06
-4.82222e-08
2.44167e-06
-5.21006e-08
2.45774e-06
-5.46436e-08
2.47407e-06
-5.57617e-08
2.49022e-06
-5.54497e-08
2.50577e-06
-5.37964e-08
2.52036e-06
-5.09644e-08
2.53371e-06
-4.71692e-08
2.54561e-06
-4.26458e-08
2.55595e-06
-3.76299e-08
2.56466e-06
-3.23404e-08
2.57175e-06
-2.69603e-08
2.57726e-06
-2.16493e-08
2.58128e-06
-1.65608e-08
2.58394e-06
-1.18163e-08
2.58541e-06
-7.49172e-09
2.5858e-06
-3.60098e-09
2.58525e-06
-1.56325e-10
2.58387e-06
2.8143e-09
2.5818e-06
5.27786e-09
2.57918e-06
7.17071e-09
2.57618e-06
8.39009e-09
2.573e-06
8.87959e-09
8.51216e-09
1.76239e-06
9.02799e-08
1.74736e-06
9.59855e-08
1.73188e-06
8.65655e-08
1.72234e-06
5.8197e-08
1.72172e-06
1.94326e-08
1.73072e-06
-1.87592e-08
1.74663e-06
-5.00084e-08
1.76771e-06
-7.10235e-08
1.79209e-06
-8.03391e-08
1.81842e-06
-7.86325e-08
1.84404e-06
-6.58833e-08
1.86544e-06
-4.36275e-08
1.88099e-06
-1.78572e-08
1.89163e-06
5.37353e-09
1.89833e-06
2.33704e-08
1.90246e-06
3.39091e-08
1.90535e-06
3.65861e-08
1.90796e-06
3.09425e-08
1.91216e-06
1.62883e-08
1.91939e-06
-4.10126e-09
1.931e-06
-2.73795e-08
1.94662e-06
-5.15078e-08
1.96622e-06
-7.50327e-08
1.98996e-06
-9.71201e-08
2.01799e-06
-1.17011e-07
2.05016e-06
-1.33847e-07
2.08596e-06
-1.46967e-07
2.12452e-06
-1.55977e-07
2.16474e-06
-1.60794e-07
2.20541e-06
-1.61668e-07
2.24543e-06
-1.59141e-07
2.28394e-06
-1.5388e-07
2.32025e-06
-1.46559e-07
2.35396e-06
-1.37896e-07
2.38493e-06
-1.28624e-07
2.41329e-06
-1.19305e-07
2.43929e-06
-1.10252e-07
2.46326e-06
-1.01552e-07
2.48551e-06
-9.32278e-08
2.50644e-06
-8.54394e-08
2.52643e-06
-7.8278e-08
2.54573e-06
-7.16458e-08
2.56435e-06
-6.52908e-08
2.58212e-06
-5.90603e-08
2.59883e-06
-5.3075e-08
2.61438e-06
-4.7633e-08
2.62871e-06
-4.29104e-08
2.64176e-06
-3.89759e-08
2.65351e-06
-3.58408e-08
2.66395e-06
-3.35186e-08
2.67316e-06
-3.21598e-08
2.68145e-06
-3.20936e-08
2.68924e-06
-3.35033e-08
2.69705e-06
-3.6649e-08
2.7055e-06
-4.16905e-08
2.71528e-06
-4.87618e-08
2.72711e-06
-5.78557e-08
2.74167e-06
-6.88054e-08
2.75947e-06
-8.12321e-08
2.78086e-06
-9.45728e-08
2.80595e-06
-1.08164e-07
2.83457e-06
-1.21262e-07
2.86631e-06
-1.33124e-07
2.90049e-06
-1.43106e-07
2.9363e-06
-1.5073e-07
2.97283e-06
-1.55716e-07
3.00916e-06
-1.57963e-07
3.04445e-06
-1.57552e-07
3.07794e-06
-1.54727e-07
3.10902e-06
-1.49861e-07
3.13728e-06
-1.43377e-07
3.16246e-06
-1.35667e-07
3.18446e-06
-1.27088e-07
3.20329e-06
-1.17978e-07
3.21906e-06
-1.08563e-07
3.23192e-06
-9.8958e-08
3.24211e-06
-8.92895e-08
3.2499e-06
-7.96328e-08
3.2555e-06
-6.9922e-08
3.25905e-06
-6.01054e-08
3.26061e-06
-5.01874e-08
3.26023e-06
-4.02937e-08
3.25796e-06
-3.06289e-08
3.25394e-06
-2.14907e-08
3.24839e-06
-1.33231e-08
3.24173e-06
-6.65789e-09
3.23447e-06
-1.92212e-09
3.2272e-06
6.1181e-10
3.22057e-06
8.41322e-10
3.21526e-06
-1.3133e-09
3.2119e-06
-5.82871e-09
3.21114e-06
-1.24598e-08
3.21343e-06
-2.07561e-08
3.21902e-06
-3.00826e-08
3.22792e-06
-3.98324e-08
3.23997e-06
-4.93586e-08
3.2548e-06
-5.80206e-08
3.27184e-06
-6.52647e-08
3.29042e-06
-7.06773e-08
3.30979e-06
-7.40147e-08
3.32922e-06
-7.51972e-08
3.34805e-06
-7.42805e-08
3.36569e-06
-7.14357e-08