/*--------------------------------*- C++ -*----------------------------------*\
| =========                 |                                                 |
| \\      /  F ield         | OpenFOAM: The Open Source CFD Toolbox           |
|  \\    /   O peration     | Version:  2206                                  |
|   \\  /    A nd           | Website:  www.openfoam.com                      |
|    \\/     M anipulation  |                                                 |
\*---------------------------------------------------------------------------*/
FoamFile
{
    version     2.0;
    format      ascii;
    arch        "LSB;label=32;scalar=64";
    class       volVectorField;
    location    "19.2";
    object      U_0;
}
// * * * * * * * * * * * * * * * * * * * * * * * * * * * * * * * * * * * * * //

dimensions      [0 1 -1 0 0 0 0];

internalField   nonuniform List<vector> 
4866
(
(1.57088 0.447984 0)
(1.57013 0.492721 0)
(1.5682 0.529169 0)
(1.56512 0.557908 0)
(1.56095 0.579675 0)
(1.55577 0.595304 0)
(1.5496 0.605637 0)
(1.54224 0.611377 0)
(1.53361 0.613056 0)
(1.52381 0.611621 0)
(1.51279 0.608021 0)
(1.50063 0.602914 0)
(1.48738 0.596686 0)
(1.47315 0.589441 0)
(1.45808 0.581018 0)
(1.44235 0.571046 0)
(1.42616 0.559017 0)
(1.4097 0.544361 0)
(1.39319 0.526523 0)
(1.37684 0.505008 0)
(1.36087 0.479412 0)
(1.34553 0.449439 0)
(1.33108 0.414911 0)
(1.31778 0.375778 0)
(1.30594 0.332123 0)
(1.29585 0.284158 0)
(1.28779 0.232256 0)
(1.28198 0.176972 0)
(1.27861 0.119026 0)
(1.27781 0.0592979 0)
(1.27957 -0.00123597 0)
(1.28371 -0.0614263 0)
(1.29005 -0.120327 0)
(1.29837 -0.177128 0)
(1.30837 -0.231106 0)
(1.31975 -0.281668 0)
(1.33215 -0.328352 0)
(1.34524 -0.370865 0)
(1.35869 -0.409065 0)
(1.37221 -0.442938 0)
(1.38555 -0.472571 0)
(1.3985 -0.498143 0)
(1.41089 -0.519897 0)
(1.42259 -0.538095 0)
(1.43348 -0.553015 0)
(1.44351 -0.564924 0)
(1.45266 -0.574038 0)
(1.46094 -0.580508 0)
(1.46846 -0.584377 0)
(1.4755 -0.585387 0)
(1.48205 -0.582979 0)
(1.48811 -0.576841 0)
(1.49388 -0.566721 0)
(1.49949 -0.55229 0)
(1.50506 -0.533176 0)
(1.51069 -0.509016 0)
(1.51648 -0.479507 0)
(1.52248 -0.444446 0)
(1.52873 -0.40377 0)
(1.53523 -0.35758 0)
(1.54198 -0.306166 0)
(1.54893 -0.250018 0)
(1.55604 -0.189831 0)
(1.56322 -0.126504 0)
(1.57039 -0.0612019 0)
(1.57737 0.00446699 0)
(1.58395 0.0690499 0)
(1.58998 0.131452 0)
(1.59532 0.190688 0)
(1.59979 0.245924 0)
(1.60327 0.296515 0)
(1.60567 0.342016 0)
(1.60692 0.38218 0)
(1.60698 0.416941 0)
(1.60587 0.446388 0)
(1.60362 0.470734 0)
(1.60026 0.490284 0)
(1.59586 0.505401 0)
(1.59048 0.516468 0)
(1.58413 0.523835 0)
(1.57664 0.527726 0)
(1.56813 0.52839 0)
(1.55865 0.526333 0)
(1.54826 0.521959 0)
(1.53705 0.515557 0)
(1.52514 0.507299 0)
(1.51264 0.497239 0)
(1.49972 0.485313 0)
(1.48655 0.471362 0)
(1.47332 0.455146 0)
(1.46022 0.436382 0)
(1.44748 0.414778 0)
(1.43527 0.390065 0)
(1.4238 0.362035 0)
(1.41326 0.33056 0)
(1.40384 0.295617 0)
(1.39572 0.257285 0)
(1.38907 0.215767 0)
(1.384 0.17141 0)
(1.38062 0.124677 0)
(1.37898 0.076138 0)
(1.37909 0.0264549 0)
(1.38089 -0.0235876 0)
(1.38427 -0.073161 0)
(1.3891 -0.121651 0)
(1.39523 -0.168472 0)
(1.40248 -0.213102 0)
(1.41065 -0.25508 0)
(1.41954 -0.294029 0)
(1.42894 -0.329669 0)
(1.43867 -0.361821 0)
(1.44855 -0.390389 0)
(1.45842 -0.415347 0)
(1.46812 -0.436739 0)
(1.47753 -0.454679 0)
(1.48655 -0.469334 0)
(1.4951 -0.480893 0)
(1.50313 -0.489551 0)
(1.5106 -0.495491 0)
(1.51761 -0.498803 0)
(1.52431 -0.499311 0)
(1.53065 -0.496717 0)
(1.53667 -0.490955 0)
(1.54249 -0.481968 0)
(1.54819 -0.46964 0)
(1.55388 -0.453811 0)
(1.55964 -0.43431 0)
(1.56552 -0.41098 0)
(1.57158 -0.383708 0)
(1.57783 -0.352452 0)
(1.58428 -0.317258 0)
(1.59089 -0.278274 0)
(1.59764 -0.235757 0)
(1.60446 -0.190076 0)
(1.6113 -0.141716 0)
(1.61809 -0.0912719 0)
(1.62475 -0.0394977 0)
(1.63112 0.0125746 0)
(1.63706 0.0639881 0)
(1.52119 0.446372 0)
(1.52367 0.492324 0)
(1.52511 0.530031 0)
(1.52545 0.560027 0)
(1.52467 0.58303 0)
(1.52277 0.599861 0)
(1.51979 0.611397 0)
(1.51565 0.618495 0)
(1.51003 0.621774 0)
(1.503 0.621817 0)
(1.49456 0.619629 0)
(1.48477 0.615872 0)
(1.47375 0.610887 0)
(1.46163 0.604735 0)
(1.44858 0.597217 0)
(1.43477 0.587936 0)
(1.42041 0.576372 0)
(1.40568 0.561952 0)
(1.3908 0.544113 0)
(1.37596 0.52235 0)
(1.36138 0.496245 0)
(1.34732 0.465487 0)
(1.33404 0.429883 0)
(1.32185 0.389345 0)
(1.31106 0.343922 0)
(1.30196 0.293849 0)
(1.29484 0.239556 0)
(1.28993 0.181656 0)
(1.28741 0.120946 0)
(1.28735 0.058386 0)
(1.28973 -0.00487534 0)
(1.29439 -0.0675718 0)
(1.30112 -0.128751 0)
(1.30967 -0.187531 0)
(1.31974 -0.243135 0)
(1.331 -0.294945 0)
(1.3431 -0.342485 0)
(1.3557 -0.385482 0)
(1.36847 -0.423815 0)
(1.38112 -0.457513 0)
(1.3934 -0.486727 0)
(1.40512 -0.511682 0)
(1.41611 -0.53264 0)
(1.42628 -0.549912 0)
(1.43553 -0.56382 0)
(1.44381 -0.574673 0)
(1.45107 -0.582731 0)
(1.45729 -0.588224 0)
(1.46259 -0.591303 0)
(1.46733 -0.591671 0)
(1.47143 -0.588647 0)
(1.47494 -0.582024 0)
(1.47807 -0.571596 0)
(1.48099 -0.557025 0)
(1.48383 -0.537918 0)
(1.48674 -0.513889 0)
(1.48983 -0.484614 0)
(1.49321 -0.449863 0)
(1.49695 -0.409547 0)
(1.5011 -0.36374 0)
(1.50571 -0.312705 0)
(1.51077 -0.256908 0)
(1.51627 -0.197019 0)
(1.52218 -0.133919 0)
(1.52844 -0.0687293 0)
(1.53488 -0.00293909 0)
(1.54131 0.0619415 0)
(1.54757 0.124832 0)
(1.55348 0.184745 0)
(1.55887 0.240834 0)
(1.56357 0.292429 0)
(1.56745 0.33905 0)
(1.57039 0.380414 0)
(1.57233 0.416417 0)
(1.57321 0.447117 0)
(1.57303 0.472696 0)
(1.57178 0.493442 0)
(1.5695 0.509706 0)
(1.56622 0.521883 0)
(1.562 0.530364 0)
(1.55674 0.535473 0)
(1.55031 0.537371 0)
(1.54287 0.536404 0)
(1.53443 0.533031 0)
(1.52511 0.527518 0)
(1.51503 0.520011 0)
(1.50432 0.510532 0)
(1.49316 0.499 0)
(1.48174 0.485235 0)
(1.47022 0.46899 0)
(1.45881 0.449978 0)
(1.44768 0.427908 0)
(1.43703 0.402514 0)
(1.42705 0.373588 0)
(1.41794 0.341009 0)
(1.40989 0.304742 0)
(1.40308 0.26489 0)
(1.39766 0.221705 0)
(1.39373 0.175566 0)
(1.39138 0.126974 0)
(1.39065 0.0765422 0)
(1.39154 0.0249899 0)
(1.39399 -0.0268102 0)
(1.39787 -0.0780092 0)
(1.40305 -0.127958 0)
(1.40936 -0.176044 0)
(1.41661 -0.221732 0)
(1.42462 -0.26454 0)
(1.43318 -0.304088 0)
(1.44208 -0.34011 0)
(1.45115 -0.372442 0)
(1.46021 -0.401006 0)
(1.46911 -0.425787 0)
(1.47773 -0.446854 0)
(1.48594 -0.464353 0)
(1.49366 -0.478467 0)
(1.50082 -0.489395 0)
(1.50733 -0.497386 0)
(1.51317 -0.502697 0)
(1.51844 -0.505489 0)
(1.52334 -0.505565 0)
(1.52773 -0.502558 0)
(1.53171 -0.49645 0)
(1.53541 -0.487239 0)
(1.53897 -0.474817 0)
(1.54248 -0.459011 0)
(1.54606 -0.439625 0)
(1.54979 -0.416483 0)
(1.55373 -0.389449 0)
(1.55794 -0.358456 0)
(1.56244 -0.323527 0)
(1.56723 -0.284788 0)
(1.5723 -0.242481 0)
(1.57763 -0.196959 0)
(1.58317 -0.148691 0)
(1.58887 -0.0982645 0)
(1.59468 -0.0464074 0)
(1.60046 0.00592344 0)
(1.60607 0.0577139 0)
(1.47472 0.441369 0)
(1.4802 0.488324 0)
(1.4848 0.527171 0)
(1.48838 0.558403 0)
(1.49082 0.582691 0)
(1.49207 0.600846 0)
(1.49208 0.613745 0)
(1.49087 0.622239 0)
(1.48828 0.627162 0)
(1.48402 0.629055 0)
(1.47822 0.628503 0)
(1.47091 0.626259 0)
(1.46224 0.622647 0)
(1.45239 0.617682 0)
(1.44152 0.611146 0)
(1.42982 0.60264 0)
(1.41746 0.591638 0)
(1.40463 0.577564 0)
(1.39153 0.559847 0)
(1.37836 0.537969 0)
(1.36535 0.511499 0)
(1.35277 0.480085 0)
(1.34091 0.443468 0)
(1.33007 0.401555 0)
(1.32056 0.354424 0)
(1.31268 0.302331 0)
(1.30669 0.245736 0)
(1.30282 0.185312 0)
(1.30122 0.12194 0)
(1.30196 0.056692 0)
(1.30498 -0.00913868 0)
(1.31012 -0.0741981 0)
(1.31716 -0.137477 0)
(1.32582 -0.198033 0)
(1.33579 -0.255049 0)
(1.34674 -0.307886 0)
(1.35832 -0.356068 0)
(1.3702 -0.399339 0)
(1.38206 -0.437596 0)
(1.39362 -0.470915 0)
(1.40465 -0.499508 0)
(1.41494 -0.523656 0)
(1.42437 -0.543679 0)
(1.43284 -0.559918 0)
(1.4403 -0.572703 0)
(1.44673 -0.582368 0)
(1.45207 -0.58921 0)
(1.45626 -0.593539 0)
(1.45936 -0.595668 0)
(1.46186 -0.595321 0)
(1.46348 -0.59153 0)
(1.46443 -0.5843 0)
(1.46496 -0.573494 0)
(1.46524 -0.558744 0)
(1.46542 -0.53963 0)
(1.46568 -0.515749 0)
(1.46614 -0.486759 0)
(1.46695 -0.452416 0)
(1.46822 -0.412606 0)
(1.47005 -0.36738 0)
(1.47252 -0.316973 0)
(1.47568 -0.261822 0)
(1.47955 -0.202571 0)
(1.48414 -0.140072 0)
(1.4894 -0.0753923 0)
(1.4952 -0.00989958 0)
(1.50136 0.0548644 0)
(1.50771 0.117838 0)
(1.51406 0.178043 0)
(1.52021 0.23463 0)
(1.52598 0.286908 0)
(1.53119 0.334374 0)
(1.53569 0.376711 0)
(1.53938 0.413779 0)
(1.54215 0.445605 0)
(1.54395 0.472339 0)
(1.54475 0.494239 0)
(1.54453 0.511644 0)
(1.54331 0.524934 0)
(1.54112 0.534506 0)
(1.538 0.540748 0)
(1.53374 0.543943 0)
(1.52836 0.544177 0)
(1.52195 0.541875 0)
(1.51457 0.537327 0)
(1.50638 0.530622 0)
(1.49757 0.521757 0)
(1.4883 0.51064 0)
(1.47874 0.49709 0)
(1.46906 0.480858 0)
(1.45944 0.461657 0)
(1.45003 0.439191 0)
(1.44105 0.41319 0)
(1.4327 0.383441 0)
(1.42518 0.349804 0)
(1.41865 0.312278 0)
(1.41327 0.271006 0)
(1.40918 0.226263 0)
(1.40648 0.17846 0)
(1.40523 0.128142 0)
(1.40547 0.0759651 0)
(1.40719 0.0227039 0)
(1.41029 -0.0306742 0)
(1.41465 -0.0833114 0)
(1.42012 -0.134526 0)
(1.42653 -0.183683 0)
(1.43371 -0.230227 0)
(1.44146 -0.273662 0)
(1.44956 -0.313612 0)
(1.45785 -0.349829 0)
(1.46613 -0.382164 0)
(1.47424 -0.410553 0)
(1.48205 -0.435005 0)
(1.48943 -0.455621 0)
(1.49632 -0.472573 0)
(1.50263 -0.486054 0)
(1.50831 -0.496261 0)
(1.51328 -0.503474 0)
(1.51747 -0.508039 0)
(1.52096 -0.510226 0)
(1.52407 -0.509723 0)
(1.5265 -0.506148 0)
(1.52842 -0.499616 0)
(1.53001 -0.490126 0)
(1.5314 -0.477568 0)
(1.53274 -0.461764 0)
(1.53415 -0.442505 0)
(1.53572 -0.419586 0)
(1.53755 -0.392851 0)
(1.53971 -0.362211 0)
(1.54225 -0.327666 0)
(1.5452 -0.289323 0)
(1.54858 -0.247403 0)
(1.55237 -0.202243 0)
(1.55657 -0.154298 0)
(1.56114 -0.10414 0)
(1.56603 -0.0524681 0)
(1.57115 -0.000169154 0)
(1.57636 0.0517128 0)
(1.43234 0.433312 0)
(1.44049 0.481006 0)
(1.44795 0.520849 0)
(1.45449 0.553256 0)
(1.45994 0.578859 0)
(1.46418 0.598428 0)
(1.46708 0.612795 0)
(1.46861 0.622828 0)
(1.46876 0.629325 0)
(1.46736 0.63302 0)
(1.46422 0.634395 0)
(1.45948 0.633799 0)
(1.45327 0.631646 0)
(1.44581 0.627966 0)
(1.43726 0.622531 0)
(1.42778 0.614925 0)
(1.41755 0.604613 0)
(1.40674 0.591014 0)
(1.39558 0.573554 0)
(1.38427 0.551693 0)
(1.37308 0.524936 0)
(1.36225 0.492893 0)
(1.35208 0.455329 0)
(1.34286 0.412143 0)
(1.33488 0.363407 0)
(1.32843 0.309397 0)
(1.32375 0.250619 0)
(1.32105 0.187809 0)
(1.32046 0.121931 0)
(1.32205 0.0541702 0)
(1.32572 -0.0140168 0)
(1.33128 -0.08122 0)
(1.33851 -0.146358 0)
(1.34712 -0.208438 0)
(1.3568 -0.266612 0)
(1.36722 -0.320225 0)
(1.37803 -0.368808 0)
(1.38894 -0.412119 0)
(1.39962 -0.450086 0)
(1.40983 -0.482841 0)
(1.41936 -0.510638 0)
(1.42801 -0.533797 0)
(1.43566 -0.552713 0)
(1.44224 -0.567793 0)
(1.44773 -0.5794 0)
(1.45213 -0.587837 0)
(1.45546 -0.593361 0)
(1.45769 -0.596305 0)
(1.4589 -0.597272 0)
(1.45908 -0.596281 0)
(1.45824 -0.591561 0)
(1.45669 -0.583716 0)
(1.4547 -0.572509 0)
(1.45243 -0.557549 0)
(1.45006 -0.538412 0)
(1.44777 -0.514692 0)
(1.4457 -0.486036 0)
(1.44404 -0.452187 0)
(1.44293 -0.413014 0)
(1.44251 -0.368545 0)
(1.44289 -0.31899 0)
(1.44418 -0.264755 0)
(1.44642 -0.206453 0)
(1.44964 -0.144893 0)
(1.45384 -0.0810822 0)
(1.45892 -0.0163013 0)
(1.46469 0.0479581 0)
(1.47099 0.110629 0)
(1.47762 0.170755 0)
(1.48436 0.227489 0)
(1.49102 0.280132 0)
(1.49739 0.328164 0)
(1.50328 0.371236 0)
(1.50855 0.409181 0)
(1.51306 0.44199 0)
(1.51671 0.469781 0)
(1.51944 0.492787 0)
(1.52121 0.511317 0)
(1.52197 0.525728 0)
(1.52174 0.5364 0)
(1.52057 0.543717 0)
(1.51848 0.548068 0)
(1.51521 0.549662 0)
(1.51092 0.548517 0)
(1.5056 0.544987 0)
(1.49942 0.539088 0)
(1.49261 0.530818 0)
(1.48534 0.520115 0)
(1.47776 0.506807 0)
(1.47 0.490637 0)
(1.46224 0.471307 0)
(1.45468 0.448507 0)
(1.44753 0.421949 0)
(1.44096 0.391403 0)
(1.43516 0.356773 0)
(1.43028 0.318087 0)
(1.42646 0.275506 0)
(1.42381 0.229332 0)
(1.42241 0.180009 0)
(1.42233 0.128119 0)
(1.42358 0.0743701 0)
(1.42613 0.0195936 0)
(1.42986 -0.0351552 0)
(1.43466 -0.0890189 0)
(1.44036 -0.141283 0)
(1.44681 -0.19129 0)
(1.45381 -0.238468 0)
(1.46117 -0.282313 0)
(1.46871 -0.322464 0)
(1.47624 -0.358679 0)
(1.4836 -0.390823 0)
(1.49063 -0.418851 0)
(1.4972 -0.44281 0)
(1.50323 -0.46284 0)
(1.50864 -0.479132 0)
(1.51339 -0.491883 0)
(1.51742 -0.501278 0)
(1.52073 -0.507639 0)
(1.52327 -0.511335 0)
(1.52507 -0.512775 0)
(1.52637 -0.511716 0)
(1.5269 -0.507384 0)
(1.52679 -0.500324 0)
(1.52629 -0.490571 0)
(1.52556 -0.477896 0)
(1.52475 -0.462095 0)
(1.524 -0.442968 0)
(1.52345 -0.420305 0)
(1.5232 -0.393927 0)
(1.52333 -0.363724 0)
(1.52393 -0.329676 0)
(1.52505 -0.291869 0)
(1.52673 -0.250505 0)
(1.52898 -0.205901 0)
(1.53181 -0.158498 0)
(1.53522 -0.108844 0)
(1.53916 -0.0576089 0)
(1.54356 -0.00563374 0)
(1.5483 0.0460664 0)
(1.39506 0.4226 0)
(1.40555 0.470798 0)
(1.41554 0.511461 0)
(1.42475 0.544949 0)
(1.43293 0.571828 0)
(1.43991 0.592841 0)
(1.44552 0.608797 0)
(1.44963 0.620481 0)
(1.4522 0.628674 0)
(1.45324 0.634105 0)
(1.45274 0.63736 0)
(1.45054 0.638605 0)
(1.44698 0.638045 0)
(1.44212 0.635669 0)
(1.436 0.631389 0)
(1.4288 0.624749 0)
(1.42077 0.615205 0)
(1.41215 0.602181 0)
(1.40315 0.585045 0)
(1.39397 0.563206 0)
(1.38486 0.536188 0)
(1.37608 0.503607 0)
(1.36788 0.465195 0)
(1.36053 0.420838 0)
(1.35431 0.370614 0)
(1.34949 0.314827 0)
(1.34629 0.254028 0)
(1.3449 0.189022 0)
(1.34542 0.12085 0)
(1.34788 0.0508103 0)
(1.35216 -0.0194659 0)
(1.35806 -0.0885296 0)
(1.36535 -0.155235 0)
(1.37373 -0.218547 0)
(1.38291 -0.27759 0)
(1.39256 -0.331705 0)
(1.40235 -0.380427 0)
(1.41201 -0.42354 0)
(1.42125 -0.46102 0)
(1.42987 -0.493031 0)
(1.43765 -0.519859 0)
(1.44445 -0.541886 0)
(1.45015 -0.559566 0)
(1.45468 -0.573365 0)
(1.45802 -0.583721 0)
(1.46022 -0.591002 0)
(1.46139 -0.595487 0)
(1.46167 -0.597397 0)
(1.46087 -0.597435 0)
(1.4588 -0.594518 0)
(1.45559 -0.58877 0)
(1.45171 -0.580305 0)
(1.44736 -0.568721 0)
(1.44268 -0.553566 0)
(1.43789 -0.534406 0)
(1.43317 -0.510859 0)
(1.42871 -0.48258 0)
(1.42471 -0.449302 0)
(1.42135 -0.410881 0)
(1.41878 -0.367327 0)
(1.41717 -0.318821 0)
(1.41664 -0.265742 0)
(1.41728 -0.208661 0)
(1.41915 -0.148341 0)
(1.42225 -0.085737 0)
(1.42653 -0.0220279 0)
(1.43182 0.0413675 0)
(1.43794 0.103372 0)
(1.44469 0.163065 0)
(1.45187 0.219611 0)
(1.45924 0.272311 0)
(1.46659 0.320625 0)
(1.47369 0.364191 0)
(1.48037 0.402812 0)
(1.48646 0.436441 0)
(1.49184 0.465173 0)
(1.49638 0.489189 0)
(1.50002 0.508805 0)
(1.5027 0.524326 0)
(1.50439 0.536106 0)
(1.50509 0.54451 0)
(1.50492 0.549886 0)
(1.50385 0.552568 0)
(1.50173 0.552713 0)
(1.49854 0.550224 0)
(1.49439 0.545177 0)
(1.48965 0.537547 0)
(1.48445 0.5273 0)
(1.47888 0.514285 0)
(1.47311 0.498235 0)
(1.46735 0.478823 0)
(1.46178 0.455702 0)
(1.45659 0.428589 0)
(1.45195 0.397308 0)
(1.44801 0.361777 0)
(1.4449 0.322037 0)
(1.44274 0.278271 0)
(1.44162 0.230812 0)
(1.4416 0.180135 0)
(1.44273 0.126857 0)
(1.44501 0.0717318 0)
(1.44839 0.0156675 0)
(1.45273 -0.0402207 0)
(1.45791 -0.0950739 0)
(1.46378 -0.148144 0)
(1.47016 -0.198761 0)
(1.47687 -0.246337 0)
(1.48373 -0.290375 0)
(1.49058 -0.330519 0)
(1.49723 -0.366536 0)
(1.50354 -0.398307 0)
(1.50938 -0.425818 0)
(1.51464 -0.449145 0)
(1.51923 -0.468442 0)
(1.52308 -0.483965 0)
(1.52617 -0.495888 0)
(1.5285 -0.504469 0)
(1.53009 -0.510013 0)
(1.53098 -0.51287 0)
(1.53114 -0.513552 0)
(1.53034 -0.511839 0)
(1.52879 -0.506689 0)
(1.52673 -0.498961 0)
(1.52421 -0.488705 0)
(1.52141 -0.475813 0)
(1.51852 -0.460026 0)
(1.51569 -0.441061 0)
(1.51306 -0.418686 0)
(1.51076 -0.392718 0)
(1.50892 -0.363032 0)
(1.50762 -0.329587 0)
(1.50694 -0.292447 0)
(1.50694 -0.251795 0)
(1.50767 -0.207931 0)
(1.50914 -0.161271 0)
(1.51137 -0.112343 0)
(1.51433 -0.0617925 0)
(1.51797 -0.0104009 0)
(1.52219 0.0408496 0)
(1.49827 0.0361233 0)
(0.127709 0.00436766 0)
(0.121024 0.00305973 0)
(0.117264 0.00169625 0)
(0.116435 0.000265608 0)
(0.118274 -0.00109457 0)
(0.122497 -0.00218016 0)
(0.128797 -0.00303407 0)
(0.136715 -0.00363061 0)
(0.145749 -0.00400495 0)
(0.155412 -0.00417734 0)
(0.16526 -0.00418455 0)
(0.174922 -0.00406561 0)
(0.1841 -0.00384771 0)
(0.192579 -0.00355255 0)
(0.200166 -0.00319574 0)
(0.206718 -0.00279298 0)
(0.212157 -0.00236148 0)
(0.216454 -0.00192012 0)
(0.219628 -0.00149029 0)
(0.221711 -0.00109491 0)
(0.22272 -0.000745199 0)
(0.222771 -0.00033039 0)
(0.221908 9.85033e-05 0)
(0.220248 0.000502937 0)
(0.217876 0.000902425 0)
(0.214917 0.00125359 0)
(0.211535 0.00153311 0)
(0.207913 0.0017289 0)
(0.204239 0.00183794 0)
(0.200688 0.00186868 0)
(0.197402 0.00183171 0)
(0.19449 0.00173287 0)
(0.192015 0.00157263 0)
(0.190007 0.00135229 0)
(0.188496 0.00109346 0)
(0.187542 0.000801671 0)
(0.187172 0.000461959 0)
(0.187377 4.95693e-05 0)
(0.188126 -0.000336214 0)
(0.189413 -0.000702051 0)
(0.191201 -0.00102907 0)
(0.193412 -0.00128595 0)
(0.195942 -0.00147485 0)
(0.198663 -0.00159814 0)
(0.20145 -0.00167548 0)
(0.204202 -0.00171672 0)
(0.206834 -0.00170678 0)
(0.209252 -0.00162196 0)
(0.211352 -0.00144708 0)
(0.213035 -0.00121241 0)
(0.214201 -0.000939001 0)
(0.214764 -0.000614683 0)
(0.214729 -0.000201916 0)
(0.214108 0.000207256 0)
(0.212895 0.000592522 0)
(0.211109 0.000958329 0)
(0.208815 0.00127201 0)
(0.206111 0.00152309 0)
(0.203085 0.00173105 0)
(0.199801 0.00190351 0)
(0.196315 0.00202803 0)
(0.192694 0.00209846 0)
(0.189017 0.00211297 0)
(0.185368 0.00207244 0)
(0.181835 0.00198204 0)
(0.178494 0.00184878 0)
(0.175421 0.00168028 0)
(0.172673 0.00148424 0)
(0.170302 0.00126721 0)
(0.168342 0.0010343 0)
(0.166827 0.000790527 0)
(0.165781 0.000543177 0)
(0.165217 0.000296629 0)
(0.165098 3.21123e-05 0)
(0.165379 -0.000214777 0)
(0.166017 -0.000422566 0)
(0.16697 -0.000596309 0)
(0.168179 -0.000734363 0)
(0.169586 -0.00084136 0)
(0.171132 -0.000916207 0)
(0.172761 -0.000960555 0)
(0.174417 -0.000977071 0)
(0.176054 -0.000968508 0)
(0.17763 -0.000937953 0)
(0.179112 -0.000887084 0)
(0.180471 -0.000817175 0)
(0.181678 -0.000731703 0)
(0.182713 -0.000636564 0)
(0.183561 -0.000536508 0)
(0.184219 -0.000434904 0)
(0.184694 -0.000336943 0)
(0.185005 -0.000242142 0)
(0.185175 -0.000151815 0)
(0.185234 -7.08376e-05 0)
(0.18522 -1.62749e-06 0)
(0.185168 4.26967e-05 0)
(0.185105 6.30597e-05 0)
(0.185059 6.48445e-05 0)
(0.185055 4.60423e-05 0)
(0.18512 1.09936e-05 0)
(0.18527 -3.63663e-05 0)
(0.185522 -9.67102e-05 0)
(0.185885 -0.000166086 0)
(0.186362 -0.000241216 0)
(0.186953 -0.000319046 0)
(0.187652 -0.000395979 0)
(0.188451 -0.000468299 0)
(0.189343 -0.000533855 0)
(0.190319 -0.000591195 0)
(0.191364 -0.000638579 0)
(0.192458 -0.000674215 0)
(0.19358 -0.00069652 0)
(0.194704 -0.00070253 0)
(0.195798 -0.000688258 0)
(0.196824 -0.000651822 0)
(0.197745 -0.000594846 0)
(0.198528 -0.000520876 0)
(0.199145 -0.000434805 0)
(0.199573 -0.00033974 0)
(0.199793 -0.000227612 0)
(0.19981 -8.76694e-05 0)
(0.199626 5.17695e-05 0)
(0.199231 0.000185772 0)
(0.198619 0.00031861 0)
(0.197791 0.00044513 0)
(0.196756 0.000562901 0)
(0.195524 0.000669604 0)
(0.194114 0.00076353 0)
(0.192546 0.000843511 0)
(0.190842 0.000908372 0)
(0.18903 0.000957079 0)
(0.187139 0.000989091 0)
(0.185199 0.00100406 0)
(0.183242 0.00100166 0)
(0.181303 0.000982219 0)
(0.179412 0.000946744 0)
(0.177599 0.000896259 0)
(0.175893 0.000832015 0)
(0.17432 0.000755751 0)
(0.450216 0.0122524 0)
(0.445707 0.00769761 0)
(0.444127 0.00268861 0)
(0.445502 -0.00239463 0)
(0.449833 -0.00703555 0)
(0.456825 -0.0109509 0)
(0.465989 -0.0140167 0)
(0.476827 -0.0161763 0)
(0.48884 -0.0174477 0)
(0.501523 -0.0178747 0)
(0.514354 -0.0176 0)
(0.526892 -0.0168138 0)
(0.538838 -0.0156059 0)
(0.549883 -0.0140241 0)
(0.559751 -0.0121577 0)
(0.568219 -0.010117 0)
(0.575134 -0.00801231 0)
(0.580425 -0.00594011 0)
(0.584107 -0.003966 0)
(0.586276 -0.0020914 0)
(0.587076 -0.000217238 0)
(0.58651 0.00165397 0)
(0.584631 0.00328801 0)
(0.581599 0.0046476 0)
(0.577616 0.00572351 0)
(0.572922 0.00647654 0)
(0.567771 0.00685499 0)
(0.562416 0.00684322 0)
(0.557135 0.00648645 0)
(0.552138 0.00585793 0)
(0.547599 0.00502298 0)
(0.543643 0.00408652 0)
(0.540334 0.00315017 0)
(0.537686 0.00228338 0)
(0.535724 0.00138889 0)
(0.534447 0.000454487 0)
(0.533795 -0.000468835 0)
(0.533886 -0.00146304 0)
(0.534814 -0.00239545 0)
(0.536486 -0.00322422 0)
(0.538798 -0.00391576 0)
(0.541633 -0.00441872 0)
(0.544873 -0.00469223 0)
(0.548357 -0.00473155 0)
(0.551893 -0.00456227 0)
(0.555343 -0.00421484 0)
(0.558622 -0.00371816 0)
(0.561603 -0.0031093 0)
(0.564106 -0.0024396 0)
(0.565972 -0.00166837 0)
(0.567112 -0.000765681 0)
(0.567523 0.000227877 0)
(0.567094 0.00129877 0)
(0.565788 0.00235058 0)
(0.563669 0.00331761 0)
(0.560814 0.00414479 0)
(0.55734 0.00480283 0)
(0.553425 0.00529456 0)
(0.549218 0.00563893 0)
(0.544789 0.00586407 0)
(0.540195 0.00599152 0)
(0.535543 0.00602052 0)
(0.530946 0.00594436 0)
(0.526503 0.00575558 0)
(0.522311 0.00545143 0)
(0.518455 0.00503613 0)
(0.515009 0.00452457 0)
(0.512028 0.00393413 0)
(0.509556 0.00328129 0)
(0.507621 0.00257836 0)
(0.506247 0.00184002 0)
(0.505439 0.00108207 0)
(0.505177 0.000315709 0)
(0.505463 -0.000418214 0)
(0.506259 -0.00106402 0)
(0.507483 -0.00160278 0)
(0.509049 -0.00203385 0)
(0.510876 -0.00235846 0)
(0.512893 -0.00257936 0)
(0.515031 -0.0027019 0)
(0.517217 -0.00273343 0)
(0.519379 -0.00268514 0)
(0.521462 -0.00257116 0)
(0.523418 -0.00240179 0)
(0.525206 -0.00218538 0)
(0.526792 -0.00193099 0)
(0.528148 -0.00164534 0)
(0.529254 -0.0013367 0)
(0.530102 -0.00102003 0)
(0.530695 -0.000714871 0)
(0.531049 -0.00043747 0)
(0.531197 -0.000208881 0)
(0.531162 -3.58496e-05 0)
(0.53097 6.93374e-05 0)
(0.530659 0.000121512 0)
(0.530278 0.000124478 0)
(0.529884 8.44158e-05 0)
(0.529514 -1.08412e-06 0)
(0.529198 -0.00013204 0)
(0.528965 -0.000296214 0)
(0.528831 -0.000486377 0)
(0.528813 -0.000692167 0)
(0.528926 -0.000898081 0)
(0.529171 -0.00109733 0)
(0.529546 -0.00127861 0)
(0.530045 -0.00143198 0)
(0.530656 -0.00156712 0)
(0.531365 -0.001691 0)
(0.532157 -0.00179039 0)
(0.533013 -0.0018493 0)
(0.533914 -0.00186817 0)
(0.534835 -0.00184868 0)
(0.535746 -0.00178531 0)
(0.536611 -0.00166547 0)
(0.537384 -0.0014827 0)
(0.53802 -0.00124623 0)
(0.538481 -0.000966951 0)
(0.538745 -0.000654577 0)
(0.538788 -0.00031673 0)
(0.538605 3.31204e-05 0)
(0.538177 0.000404306 0)
(0.537494 0.000780593 0)
(0.536567 0.00114954 0)
(0.535405 0.00150629 0)
(0.534015 0.00184763 0)
(0.532408 0.00216727 0)
(0.530601 0.00245781 0)
(0.528619 0.00271419 0)
(0.526489 0.0029335 0)
(0.524238 0.00311193 0)
(0.521899 0.00324445 0)
(0.519507 0.00332762 0)
(0.517098 0.00335983 0)
(0.514708 0.00333988 0)
(0.512372 0.00326759 0)
(0.510124 0.00314463 0)
(0.507995 0.00297398 0)
(0.506016 0.0027597 0)
(0.504212 0.00250722 0)
(0.78991 0.0184256 0)
(0.784193 0.0103922 0)
(0.780736 0.00209223 0)
(0.77976 -0.00598164 0)
(0.781218 -0.0134269 0)
(0.784804 -0.0199463 0)
(0.790213 -0.0252927 0)
(0.797223 -0.0291279 0)
(0.805591 -0.0317298 0)
(0.814933 -0.0329058 0)
(0.82482 -0.0327872 0)
(0.834982 -0.0316645 0)
(0.84529 -0.0297333 0)
(0.855436 -0.027088 0)
(0.86507 -0.0238208 0)
(0.873936 -0.0200746 0)
(0.881795 -0.0160396 0)
(0.888431 -0.0119455 0)
(0.893695 -0.00800979 0)
(0.897541 -0.00435593 0)
(0.900062 -0.000983342 0)
(0.901379 0.00215273 0)
(0.901596 0.00505172 0)
(0.900823 0.00764313 0)
(0.899194 0.00980807 0)
(0.896855 0.0114014 0)
(0.893947 0.012466 0)
(0.890651 0.0129563 0)
(0.887119 0.0128385 0)
(0.883414 0.0121784 0)
(0.879569 0.0111253 0)
(0.875656 0.00980983 0)
(0.871818 0.0083291 0)
(0.868191 0.00672805 0)
(0.86486 0.00501104 0)
(0.861915 0.00321333 0)
(0.859419 0.00134269 0)
(0.857406 -0.00061389 0)
(0.855934 -0.00265411 0)
(0.85503 -0.00458294 0)
(0.854657 -0.00622604 0)
(0.854758 -0.00759481 0)
(0.855291 -0.00869385 0)
(0.85625 -0.00925048 0)
(0.857576 -0.00940806 0)
(0.859191 -0.00935022 0)
(0.860998 -0.00904252 0)
(0.862881 -0.00833158 0)
(0.864751 -0.00691482 0)
(0.866548 -0.00508554 0)
(0.868165 -0.00305422 0)
(0.869477 -0.000940947 0)
(0.870403 0.00119129 0)
(0.870847 0.00334147 0)
(0.870728 0.00546197 0)
(0.870004 0.00742413 0)
(0.868645 0.00906153 0)
(0.866614 0.0101516 0)
(0.863913 0.0110118 0)
(0.860628 0.0118011 0)
(0.856857 0.0123356 0)
(0.852683 0.012566 0)
(0.848218 0.0124831 0)
(0.843594 0.0120824 0)
(0.838967 0.011386 0)
(0.83448 0.0104366 0)
(0.830246 0.00927873 0)
(0.826369 0.0079628 0)
(0.822934 0.00653668 0)
(0.820007 0.00503622 0)
(0.817637 0.00348428 0)
(0.815856 0.00191739 0)
(0.81467 0.000399119 0)
(0.814065 -0.00101106 0)
(0.814022 -0.00228148 0)
(0.814516 -0.00337896 0)
(0.815478 -0.00425859 0)
(0.816836 -0.00491396 0)
(0.818514 -0.00541978 0)
(0.82044 -0.00572075 0)
(0.822545 -0.0058262 0)
(0.824756 -0.00575586 0)
(0.827003 -0.00553891 0)
(0.829209 -0.00520369 0)
(0.831326 -0.00476718 0)
(0.833294 -0.00424313 0)
(0.835068 -0.00364443 0)
(0.836612 -0.00299034 0)
(0.837893 -0.00230984 0)
(0.838888 -0.00164612 0)
(0.839587 -0.00103662 0)
(0.839999 -0.000494137 0)
(0.840158 -1.6536e-05 0)
(0.840109 0.000383279 0)
(0.839875 0.000666962 0)
(0.839494 0.000813652 0)
(0.839013 0.000845542 0)
(0.838471 0.000786021 0)
(0.837906 0.000649775 0)
(0.837364 0.000448065 0)
(0.836888 0.000190146 0)
(0.836501 -0.000103704 0)
(0.83621 -0.000421182 0)
(0.836022 -0.000751284 0)
(0.835943 -0.00108455 0)
(0.835973 -0.00140707 0)
(0.836112 -0.00170547 0)
(0.836352 -0.00197461 0)
(0.836681 -0.00220887 0)
(0.83709 -0.00239849 0)
(0.837572 -0.00253448 0)
(0.838119 -0.00260638 0)
(0.838716 -0.00259164 0)
(0.839334 -0.00245995 0)
(0.839908 -0.00220012 0)
(0.840375 -0.00183001 0)
(0.840692 -0.00136842 0)
(0.840826 -0.000839581 0)
(0.840758 -0.000263078 0)
(0.840478 0.00034643 0)
(0.839977 0.00097148 0)
(0.839241 0.00160953 0)
(0.838266 0.00225598 0)
(0.837052 0.00290343 0)
(0.835596 0.00354337 0)
(0.833899 0.00415565 0)
(0.831973 0.00471783 0)
(0.829842 0.00521377 0)
(0.827531 0.00563504 0)
(0.825066 0.00597246 0)
(0.822478 0.00621399 0)
(0.819806 0.00635263 0)
(0.81709 0.00638706 0)
(0.814374 0.00631825 0)
(0.811699 0.00615017 0)
(0.809106 0.00588928 0)
(0.806632 0.00554321 0)
(0.804313 0.00512056 0)
(0.802181 0.00463135 0)
(1.10483 0.0288768 0)
(1.09874 0.019318 0)
(1.09297 0.00881042 0)
(1.08797 -0.00169408 0)
(1.0841 -0.0114707 0)
(1.08147 -0.0200735 0)
(1.08011 -0.0272876 0)
(1.08009 -0.0330464 0)
(1.08141 -0.0373233 0)
(1.08406 -0.0397419 0)
(1.08787 -0.0404742 0)
(1.09246 -0.0404049 0)
(1.09775 -0.0393434 0)
(1.10372 -0.0370498 0)
(1.11023 -0.0338274 0)
(1.11705 -0.0298317 0)
(1.12398 -0.0252263 0)
(1.13085 -0.0201946 0)
(1.1374 -0.0149979 0)
(1.14341 -0.00984885 0)
(1.1487 -0.00490935 0)
(1.15314 -0.000313386 0)
(1.15677 0.00383651 0)
(1.15964 0.00745348 0)
(1.16179 0.0104954 0)
(1.16323 0.0128861 0)
(1.16401 0.0144658 0)
(1.16424 0.0151795 0)
(1.16402 0.0152929 0)
(1.16339 0.015127 0)
(1.16249 0.0144745 0)
(1.16145 0.0133761 0)
(1.16038 0.011974 0)
(1.15941 0.0103349 0)
(1.15862 0.00850997 0)
(1.15807 0.00653179 0)
(1.15777 0.004441 0)
(1.1577 0.00227337 0)
(1.15778 8.01671e-05 0)
(1.15793 -0.00201817 0)
(1.15803 -0.00389355 0)
(1.15795 -0.00545605 0)
(1.15757 -0.00667402 0)
(1.15678 -0.00751395 0)
(1.15566 -0.00794021 0)
(1.15418 -0.00799621 0)
(1.15225 -0.00770458 0)
(1.14987 -0.00706359 0)
(1.14718 -0.00627554 0)
(1.14428 -0.00529867 0)
(1.1412 -0.00391272 0)
(1.13793 -0.00212291 0)
(1.13446 -5.86705e-05 0)
(1.13083 0.00218444 0)
(1.12721 0.00446353 0)
(1.12374 0.00668292 0)
(1.12041 0.00880018 0)
(1.11711 0.0108193 0)
(1.11367 0.0125601 0)
(1.11009 0.0139372 0)
(1.10649 0.0150199 0)
(1.10285 0.015752 0)
(1.09915 0.0160967 0)
(1.09542 0.0160127 0)
(1.09168 0.0155078 0)
(1.08801 0.0146328 0)
(1.08449 0.0134419 0)
(1.08121 0.0119822 0)
(1.07824 0.0103021 0)
(1.07566 0.00843993 0)
(1.07355 0.00644186 0)
(1.07193 0.00436815 0)
(1.07082 0.00228947 0)
(1.07022 0.00028432 0)
(1.07014 -0.00157524 0)
(1.07055 -0.00323516 0)
(1.07146 -0.00464599 0)
(1.0728 -0.00578099 0)
(1.07452 -0.00665318 0)
(1.07653 -0.00727153 0)
(1.07877 -0.00763142 0)
(1.08117 -0.00773945 0)
(1.08366 -0.00762562 0)
(1.08618 -0.00730126 0)
(1.08865 -0.00679064 0)
(1.09102 -0.00611999 0)
(1.09322 -0.00531914 0)
(1.09519 -0.00442689 0)
(1.09691 -0.00347573 0)
(1.09836 -0.00250231 0)
(1.09952 -0.00156338 0)
(1.10037 -0.000721909 0)
(1.10094 -5.35284e-06 0)
(1.10123 0.00056944 0)
(1.10129 0.00100368 0)
(1.10121 0.00128897 0)
(1.10102 0.00141514 0)
(1.10077 0.00141466 0)
(1.10053 0.00126662 0)
(1.10031 0.000958496 0)
(1.10016 0.000564335 0)
(1.1001 0.000112194 0)
(1.10014 -0.000369088 0)
(1.1003 -0.000855012 0)
(1.10055 -0.00132447 0)
(1.10088 -0.00176384 0)
(1.10125 -0.00216823 0)
(1.10165 -0.00253128 0)
(1.10205 -0.0028415 0)
(1.10244 -0.00308772 0)
(1.10279 -0.00326669 0)
(1.10311 -0.00336648 0)
(1.1034 -0.00338974 0)
(1.10363 -0.00324478 0)
(1.10371 -0.00285845 0)
(1.10357 -0.00230282 0)
(1.10316 -0.00160473 0)
(1.10248 -0.000795582 0)
(1.10152 7.32021e-05 0)
(1.10031 0.000972608 0)
(1.09885 0.00189922 0)
(1.09716 0.00284308 0)
(1.09526 0.0037794 0)
(1.09316 0.00468666 0)
(1.09086 0.00557143 0)
(1.08834 0.00640333 0)
(1.08562 0.00714847 0)
(1.08273 0.00779495 0)
(1.07971 0.00835083 0)
(1.07658 0.00880938 0)
(1.07335 0.00914866 0)
(1.07009 0.00935723 0)
(1.06684 0.00943333 0)
(1.06363 0.00937331 0)
(1.06052 0.00917412 0)
(1.05754 0.00883747 0)
(1.05473 0.00836868 0)
(1.05214 0.00777804 0)
(1.04979 0.00708101 0)
(1.33067 0.0325959 0)
(1.32428 0.0239692 0)
(1.31766 0.0143461 0)
(1.31076 0.00413599 0)
(1.30385 -0.0059016 0)
(1.2973 -0.0151803 0)
(1.29134 -0.0234207 0)
(1.28619 -0.0304503 0)
(1.28199 -0.036065 0)
(1.27889 -0.0399297 0)
(1.27709 -0.041906 0)
(1.27641 -0.0423791 0)
(1.27647 -0.0422292 0)
(1.27734 -0.041015 0)
(1.27914 -0.0386633 0)
(1.28184 -0.0354063 0)
(1.28522 -0.0314088 0)
(1.28912 -0.0268778 0)
(1.29344 -0.0220032 0)
(1.29809 -0.0169448 0)
(1.30292 -0.0118661 0)
(1.30778 -0.00695975 0)
(1.31257 -0.00235283 0)
(1.31724 0.0018253 0)
(1.32179 0.00547274 0)
(1.32619 0.00852721 0)
(1.33044 0.0109097 0)
(1.33448 0.012539 0)
(1.33836 0.0133616 0)
(1.34224 0.0133877 0)
(1.34615 0.0128096 0)