/*--------------------------------*- C++ -*----------------------------------*\
| =========                 |                                                 |
| \\      /  F ield         | OpenFOAM: The Open Source CFD Toolbox           |
|  \\    /   O peration     | Version:  2206                                  |
|   \\  /    A nd           | Website:  www.openfoam.com                      |
|    \\/     M anipulation  |                                                 |
\*---------------------------------------------------------------------------*/
FoamFile
{
    version     2.0;
    format      ascii;
    arch        "LSB;label=32;scalar=64";
    class       surfaceScalarField;
    location    "19.1001";
    object      phi_0;
}
// * * * * * * * * * * * * * * * * * * * * * * * * * * * * * * * * * * * * * //

dimensions      [0 3 -1 0 0 0 0];

oriented        oriented;

internalField   nonuniform List<scalar> 
3492
(
6.25443e-06
2.14053e-07
-1.82338e-07
6.22183e-06
2.1571e-07
-1.83105e-07
6.18956e-06
2.10662e-07
-1.78401e-07
6.159e-06
1.99001e-07
-1.68433e-07
6.13137e-06
1.81003e-07
-1.53373e-07
6.10762e-06
1.57207e-07
-1.3346e-07
6.08843e-06
1.28158e-07
-1.08968e-07
6.07426e-06
9.44695e-08
-8.03018e-08
6.06546e-06
5.69565e-08
-4.81557e-08
6.06222e-06
1.68379e-08
-1.35947e-08
6.06435e-06
-2.38078e-08
2.16793e-08
6.07131e-06
-6.28218e-08
5.58619e-08
6.08235e-06
-9.83652e-08
8.73205e-08
6.09657e-06
-1.28868e-07
1.14646e-07
6.11303e-06
-1.53219e-07
1.3676e-07
6.13093e-06
-1.70874e-07
1.52977e-07
6.14974e-06
-1.81775e-07
1.62959e-07
6.16917e-06
-1.86089e-07
1.66661e-07
6.18884e-06
-1.83849e-07
1.64184e-07
6.2081e-06
-1.74892e-07
1.55624e-07
6.22638e-06
-1.5956e-07
1.41281e-07
6.24319e-06
-1.38631e-07
1.21823e-07
6.25812e-06
-1.13004e-07
9.80781e-08
6.27075e-06
-8.36087e-08
7.09799e-08
6.28055e-06
-5.14565e-08
4.16508e-08
6.287e-06
-1.77492e-08
1.1306e-08
6.28979e-06
1.60577e-08
-1.88553e-08
6.28887e-06
4.87024e-08
-4.77834e-08
6.28431e-06
7.91008e-08
-7.45391e-08
6.27631e-06
1.06298e-07
-9.82988e-08
6.26515e-06
1.29506e-07
-1.18346e-07
6.25111e-06
1.48125e-07
-1.34083e-07
6.23452e-06
1.61748e-07
-1.45156e-07
6.2159e-06
1.70164e-07
-1.51544e-07
6.19587e-06
1.73373e-07
-1.53339e-07
6.17509e-06
1.71501e-07
-1.50722e-07
6.15431e-06
1.64693e-07
-1.43913e-07
6.13433e-06
1.53169e-07
-1.33194e-07
6.11595e-06
1.37334e-07
-1.18947e-07
6.09984e-06
1.17674e-07
-1.01567e-07
6.08657e-06
9.46986e-08
-8.14329e-08
6.07659e-06
6.89395e-08
-5.89564e-08
6.07024e-06
4.10061e-08
-3.46524e-08
6.06776e-06
1.17245e-08
-9.24464e-09
6.06911e-06
-1.76378e-08
1.62845e-08
6.07403e-06
-4.58714e-08
4.09513e-08
6.0821e-06
-7.18683e-08
6.37986e-08
6.09277e-06
-9.46386e-08
8.39657e-08
6.10543e-06
-1.13416e-07
1.00754e-07
6.1195e-06
-1.27726e-07
1.13663e-07
6.13449e-06
-1.37395e-07
1.22401e-07
6.15007e-06
-1.42464e-07
1.26886e-07
6.16587e-06
-1.43007e-07
1.27202e-07
6.1815e-06
-1.39104e-07
1.23474e-07
6.19652e-06
-1.3087e-07
1.15848e-07
6.21052e-06
-1.18661e-07
1.04663e-07
6.22313e-06
-1.03046e-07
9.04333e-08
6.23399e-06
-8.46407e-08
7.37875e-08
6.2427e-06
-6.41031e-08
5.53919e-08
6.24893e-06
-4.21872e-08
3.59519e-08
6.25252e-06
-1.97901e-08
1.62045e-08
6.25346e-06
2.22207e-09
-3.16451e-09
6.25186e-06
2.3139e-08
-2.15322e-08
6.24788e-06
4.23261e-08
-3.83479e-08
6.24177e-06
5.92501e-08
-5.31384e-08
6.23378e-06
7.35002e-08
-6.55129e-08
6.22415e-06
8.47962e-08
-7.51661e-08
6.21314e-06
9.29755e-08
-8.19702e-08
6.2011e-06
9.79923e-08
-8.59493e-08
6.18837e-06
9.9916e-08
-8.71907e-08
6.17532e-06
9.88779e-08
-8.58244e-08
6.16233e-06
9.49946e-08
-8.19995e-08
6.14982e-06
8.84366e-08
-7.5931e-08
6.13823e-06
7.94957e-08
-6.79043e-08
6.12796e-06
6.85128e-08
-5.82447e-08
6.1194e-06
5.58851e-08
-4.73198e-08
6.11284e-06
4.20885e-08
-3.55297e-08
6.10843e-06
2.77313e-08
-2.33209e-08
6.10614e-06
1.34903e-08
-1.12029e-08
6.10584e-06
-1.85506e-11
3.17556e-10
6.10731e-06
-1.22287e-08
1.07625e-08
6.11026e-06
-2.26817e-08
1.97298e-08
6.11441e-06
-3.10617e-08
2.69063e-08
6.11955e-06
-3.72031e-08
3.20634e-08
6.1255e-06
-4.10236e-08
3.50768e-08
6.13205e-06
-4.24874e-08
3.59345e-08
6.13896e-06
-4.15688e-08
3.46573e-08
6.14597e-06
-3.83064e-08
3.13027e-08
6.15279e-06
-3.28314e-08
2.60082e-08
6.1592e-06
-2.54226e-08
1.9016e-08
6.16496e-06
-1.64113e-08
1.0648e-08
6.16979e-06
-6.16631e-09
1.33891e-09
6.17338e-06
4.83025e-09
-8.42284e-09
6.17555e-06
1.59779e-08
-1.81463e-08
6.17623e-06
2.67228e-08
-2.73991e-08
6.17543e-06
3.65992e-08
-3.58039e-08
6.17326e-06
4.52145e-08
-4.30435e-08
6.16983e-06
5.2266e-08
-4.8838e-08
6.16522e-06
5.75228e-08
-5.2908e-08
6.15951e-06
6.07967e-08
-5.50937e-08
6.15288e-06
6.19596e-08
-5.53288e-08
6.14552e-06
6.09827e-08
-5.36166e-08
6.13765e-06
5.78694e-08
-4.99997e-08
6.12955e-06
5.26636e-08
-4.4565e-08
6.12151e-06
4.54958e-08
-3.74592e-08
6.11382e-06
3.65625e-08
-2.88743e-08
6.10676e-06
2.6098e-08
-1.90391e-08
6.10063e-06
1.43621e-08
-8.22574e-09
6.0957e-06
1.62861e-09
3.30266e-09
6.09222e-06
-1.17683e-08
1.52484e-08
6.09034e-06
-2.54321e-08
2.73049e-08
6.09013e-06
-3.89331e-08
3.91452e-08
6.09157e-06
-5.18815e-08
5.04454e-08
6.09457e-06
-6.38904e-08
6.08843e-08
6.09902e-06
-7.46483e-08
7.02041e-08
6.10473e-06
-8.3808e-08
7.80946e-08
6.1116e-06
-9.13005e-08
8.44302e-08
6.11938e-06
-9.68484e-08
8.90681e-08
6.12802e-06
-1.00331e-07
9.16961e-08
6.13724e-06
-1.02594e-07
9.33759e-08
-1.00314e-07
9.05038e-08
6.57162e-06
2.36438e-07
6.54804e-06
2.39289e-07
6.52404e-06
2.34662e-07
6.50094e-06
2.22099e-07
6.47991e-06
2.02033e-07
6.46183e-06
1.75288e-07
6.44736e-06
1.42623e-07
6.43698e-06
1.04854e-07
6.43099e-06
6.29494e-08
6.42951e-06
1.83148e-08
6.43229e-06
-2.65878e-08
6.43878e-06
-6.93117e-08
6.44826e-06
-1.07847e-07
6.45985e-06
-1.40454e-07
6.47256e-06
-1.65929e-07
6.48555e-06
-1.83864e-07
6.49836e-06
-1.94587e-07
6.51111e-06
-1.9884e-07
6.52433e-06
-1.97067e-07
6.53721e-06
-1.87774e-07
6.54926e-06
-1.71605e-07
6.56011e-06
-1.49487e-07
6.56945e-06
-1.22345e-07
6.57698e-06
-9.11375e-08
6.58238e-06
-5.68572e-08
6.58525e-06
-2.06187e-08
6.58526e-06
1.60494e-08
6.58239e-06
5.15748e-08
6.57675e-06
8.47416e-08
6.5686e-06
1.1444e-07
6.55837e-06
1.3974e-07
6.54652e-06
1.59974e-07
6.53344e-06
1.74829e-07
6.51932e-06
1.84278e-07
6.50434e-06
1.88354e-07
6.48891e-06
1.86938e-07
6.47357e-06
1.8003e-07
6.45894e-06
1.67797e-07
6.44562e-06
1.50661e-07
6.43411e-06
1.29177e-07
6.42487e-06
1.03938e-07
6.41824e-06
7.55691e-08
6.4145e-06
4.47519e-08
6.41385e-06
1.23693e-08
6.4163e-06
-2.00816e-08
6.42159e-06
-5.11653e-08
6.42935e-06
-7.96215e-08
6.43902e-06
-1.04311e-07
6.44997e-06
-1.24365e-07
6.46157e-06
-1.39325e-07
6.47337e-06
-1.49198e-07
6.48523e-06
-1.54327e-07
6.49714e-06
-1.54916e-07
6.50886e-06
-1.50823e-07
6.51994e-06
-1.41955e-07
6.53007e-06
-1.28783e-07
6.53896e-06
-1.11938e-07
6.54638e-06
-9.20617e-08
6.5521e-06
-6.98236e-08
6.55586e-06
-4.59483e-08
6.55744e-06
-2.13731e-08
6.55686e-06
2.80965e-09
6.5542e-06
2.57947e-08
6.54968e-06
4.68504e-08
6.54357e-06
6.53601e-08
6.5362e-06
8.08638e-08
6.52791e-06
9.30872e-08
6.51896e-06
1.01931e-07
6.50949e-06
1.07456e-07
6.49966e-06
1.09751e-07
6.48967e-06
1.08863e-07
6.47985e-06
1.0482e-07
6.4705e-06
9.77832e-08
6.46191e-06
8.80837e-08
6.45433e-06
7.60994e-08
6.44799e-06
6.22255e-08
6.44315e-06
4.69205e-08
6.44002e-06
3.08663e-08
6.43857e-06
1.49425e-08
6.43869e-06
-1.39344e-10
6.44018e-06
-1.37261e-08
6.44279e-06
-2.52845e-08
6.4462e-06
-3.44746e-08
6.45016e-06
-4.11613e-08
6.45451e-06
-4.53774e-08
6.45925e-06
-4.72206e-08
6.46427e-06
-4.65918e-08
6.4693e-06
-4.33396e-08
6.47409e-06
-3.76221e-08
6.47845e-06
-2.97822e-08
6.48222e-06
-2.01758e-08
6.48521e-06
-9.1626e-09
6.48722e-06
2.82302e-09
6.48802e-06
1.51764e-08
6.48756e-06
2.71889e-08
6.48585e-06
3.83091e-08
6.483e-06
4.80581e-08
6.4792e-06
5.607e-08
6.4746e-06
6.21169e-08
6.46932e-06
6.60788e-08
6.46343e-06
6.7853e-08
6.45708e-06
6.73347e-08
6.45045e-06
6.45001e-08
6.44376e-06
5.9352e-08
6.43724e-06
5.20115e-08
6.43112e-06
4.26833e-08
6.4256e-06
3.16203e-08
6.42086e-06
1.91042e-08
6.41706e-06
5.42458e-09
6.4144e-06
-9.10783e-09
6.41304e-06
-2.40726e-08
6.41305e-06
-3.89388e-08
6.41442e-06
-5.32524e-08
6.41711e-06
-6.65814e-08
6.421e-06
-7.85384e-08
6.42594e-06
-8.87512e-08
6.43173e-06
-9.70862e-08
6.43817e-06
-1.03287e-07
6.44522e-06
-1.0739e-07
6.45268e-06
-1.10046e-07
-1.08207e-07
6.81774e-06
2.49324e-07
6.80445e-06
2.5258e-07
6.78993e-06
2.49175e-07
6.77595e-06
2.36082e-07
6.76338e-06
2.14607e-07
6.75283e-06
1.85833e-07
6.74477e-06
1.5068e-07
6.73948e-06
1.10148e-07
6.73707e-06
6.53632e-08
6.73738e-06
1.79987e-08
6.73998e-06
-2.91834e-08
6.74438e-06
-7.37103e-08
6.7501e-06
-1.13565e-07
6.75667e-06
-1.47025e-07
6.76352e-06
-1.72785e-07
6.77004e-06
-1.90378e-07
6.77584e-06
-2.00393e-07
6.78112e-06
-2.04121e-07
6.78712e-06
-2.03061e-07
6.79331e-06
-1.93966e-07
6.79923e-06
-1.77528e-07
6.80467e-06
-1.54924e-07
6.80936e-06
-1.27035e-07
6.81304e-06
-9.48154e-08
6.81539e-06
-5.92156e-08
6.81608e-06
-2.1308e-08
6.81466e-06
1.74687e-08
6.81106e-06
5.51825e-08
6.80531e-06
9.04917e-08
6.79765e-06
1.22092e-07
6.78854e-06
1.48857e-07
6.77853e-06
1.6998e-07
6.76819e-06
1.85173e-07
6.7578e-06
1.94669e-07
6.74726e-06
1.9889e-07
6.73652e-06
1.97683e-07
6.72609e-06
1.90453e-07
6.71647e-06
1.77416e-07
6.70805e-06
1.59079e-07
6.70118e-06
1.36053e-07
6.69612e-06
1.09001e-07
6.69307e-06
7.86125e-08
6.6922e-06
4.56202e-08
6.69356e-06
1.10162e-08
6.69696e-06
-2.34825e-08
6.70215e-06
-5.63595e-08
6.70882e-06
-8.62851e-08
6.71654e-06
-1.12033e-07
6.72481e-06
-1.32633e-07
6.73305e-06
-1.47573e-07
6.74083e-06
-1.56978e-07
6.74806e-06
-1.61557e-07
6.75525e-06
-1.62099e-07
6.76267e-06
-1.5825e-07
6.76969e-06
-1.48967e-07
6.77611e-06
-1.35202e-07
6.78176e-06
-1.17588e-07
6.78647e-06
-9.67767e-08
6.79008e-06
-7.34323e-08
6.79237e-06
-4.82441e-08
6.79311e-06
-2.21106e-08
6.7922e-06
3.72299e-09
6.78966e-06
2.8338e-08
6.78561e-06
5.08961e-08
6.7803e-06
7.06724e-08
6.77404e-06
8.71211e-08
6.7672e-06
9.99244e-08
6.76012e-06
1.09013e-07
6.75295e-06
1.14626e-07
6.74568e-06
1.17024e-07
6.73822e-06
1.16317e-07
6.73092e-06
1.12121e-07
6.72408e-06
1.04627e-07
6.71791e-06
9.4256e-08
6.71258e-06
8.14305e-08
6.70822e-06
6.65811e-08
6.70497e-06
5.0171e-08
6.70294e-06
3.28933e-08
6.70213e-06
1.57601e-08
6.70243e-06
-4.46544e-10
6.70369e-06
-1.49824e-08
6.70567e-06
-2.72669e-08
6.70811e-06
-3.69152e-08
6.7107e-06
-4.37486e-08
6.71325e-06
-4.79271e-08
6.7158e-06
-4.9774e-08
6.71873e-06
-4.95166e-08
6.72173e-06
-4.63401e-08
6.72454e-06
-4.04356e-08
6.72707e-06
-3.23064e-08
6.72919e-06
-2.23051e-08
6.73083e-06
-1.08013e-08
6.73184e-06
1.81793e-09
6.732e-06
1.50145e-08
6.7312e-06
2.79877e-08
6.72942e-06
4.00913e-08
6.72673e-06
5.07499e-08
6.7233e-06
5.95021e-08
6.71933e-06
6.60797e-08
6.71498e-06
7.04305e-08
6.71025e-06
7.25877e-08
6.70512e-06
7.24631e-08
6.69974e-06
6.98734e-08
6.69434e-06
6.47566e-08
6.6891e-06
5.72555e-08
6.68419e-06
4.75887e-08
6.67978e-06
3.60274e-08
6.67602e-06
2.28696e-08
6.67302e-06
8.42374e-09
6.67091e-06
-6.99854e-09
6.66982e-06
-2.29871e-08
6.66983e-06
-3.89419e-08
6.67092e-06
-5.43436e-08
6.67307e-06
-6.87315e-08
6.67617e-06
-8.1642e-08
6.68012e-06
-9.26955e-08
6.68461e-06
-1.01575e-07
6.68952e-06
-1.08203e-07
6.69472e-06
-1.1259e-07
6.69997e-06
-1.15289e-07
-1.13865e-07
6.98204e-06
2.545e-07
6.97746e-06
2.57157e-07
6.97197e-06
2.54668e-07
6.96702e-06
2.41033e-07
6.96293e-06
2.18701e-07
6.95986e-06
1.889e-07
6.95787e-06
1.52674e-07
6.95682e-06
1.11193e-07
6.95649e-06
6.56939e-08
6.95645e-06
1.8038e-08
6.95628e-06
-2.90129e-08
6.95581e-06
-7.32431e-08
6.95508e-06
-1.12832e-07
6.95426e-06
-1.46205e-07
6.9536e-06
-1.72129e-07
6.95322e-06
-1.89996e-07
6.95293e-06
-2.00097e-07
6.95269e-06
-2.03886e-07
6.95282e-06
-2.03188e-07
6.95357e-06
-1.94719e-07
6.95479e-06
-1.78743e-07
6.95627e-06
-1.56405e-07
6.95776e-06
-1.28527e-07
6.95899e-06
-9.60502e-08
6.9597e-06
-5.99216e-08
6.95963e-06
-2.12347e-08
6.95831e-06
1.87849e-08
6.95562e-06
5.78784e-08
6.95148e-06
9.46306e-08
6.94601e-06
1.2756e-07
6.93952e-06
1.55351e-07
6.9325e-06
1.76992e-07
6.92555e-06
1.92132e-07
6.91911e-06
2.01107e-07
6.91316e-06
2.04835e-07
6.90707e-06
2.03772e-07
6.90133e-06
1.96202e-07
6.89634e-06
1.82404e-07
6.89234e-06
1.63078e-07
6.88949e-06
1.38896e-07
6.88789e-06
1.10606e-07
6.88755e-06
7.89523e-08
6.88845e-06
4.47229e-08
6.89039e-06
9.07525e-09
6.89302e-06
-2.61166e-08
6.8961e-06
-5.9435e-08
6.89944e-06
-8.96299e-08
6.90297e-06
-1.15566e-07
6.90659e-06
-1.36245e-07
6.91008e-06
-1.51064e-07
6.91323e-06
-1.60131e-07
6.91592e-06
-1.64245e-07
6.91861e-06
-1.64793e-07
6.92189e-06
-1.61523e-07
6.92516e-06
-1.52237e-07
6.92835e-06
-1.38396e-07
6.93136e-06
-1.20598e-07
6.93407e-06
-9.94829e-08
6.93633e-06
-7.56992e-08
6.93799e-06
-4.9895e-08
6.93881e-06
-2.29328e-08
6.93864e-06
3.89126e-09
6.93741e-06
2.95627e-08
6.93517e-06
5.31396e-08
6.93203e-06
7.38169e-08
6.92818e-06
9.09706e-08
6.92393e-06
1.0417e-07
6.91961e-06
1.13334e-07
6.9154e-06
1.18834e-07
6.91129e-06
1.21138e-07
6.90685e-06
1.20752e-07
6.9024e-06
1.1657e-07
6.89824e-06
1.08787e-07
6.89451e-06
9.79875e-08
6.89131e-06
8.46317e-08
6.8887e-06
6.91965e-08
6.88669e-06
5.21747e-08
6.8853e-06
3.42883e-08
6.88444e-06
1.66178e-08
6.88404e-06
-4.76275e-11
6.88399e-06
-1.49297e-08
6.88418e-06
-2.74584e-08
6.88455e-06
-3.72893e-08
6.88501e-06
-4.4206e-08
6.88544e-06
-4.83592e-08
6.88581e-06
-5.01404e-08
6.88626e-06
-4.99648e-08
6.88675e-06
-4.6828e-08
6.88723e-06
-4.09221e-08
6.88768e-06
-3.27528e-08
6.88805e-06
-2.26753e-08
6.88831e-06
-1.10613e-08
6.88839e-06
1.74037e-09
6.88814e-06
1.52652e-08
6.88741e-06
2.8716e-08
6.88612e-06
4.13812e-08
6.88425e-06
5.26202e-08
6.88189e-06
6.18616e-08
6.87924e-06
6.87269e-08
6.87652e-06
7.31554e-08
6.87373e-06
7.53783e-08
6.87061e-06
7.55818e-08
6.86725e-06
7.32257e-08
6.86382e-06
6.81956e-08
6.86043e-06
6.06409e-08
6.85723e-06
5.07892e-08
6.85433e-06
3.89252e-08
6.85186e-06
2.53416e-08
6.84993e-06
1.03564e-08
6.84863e-06
-5.70447e-09
6.84803e-06
-2.23823e-08
6.8481e-06
-3.9014e-08
6.8488e-06
-5.5041e-08
6.85008e-06
-7.00187e-08
6.85189e-06
-8.34451e-08
6.85414e-06
-9.49499e-08
6.85667e-06
-1.04098e-07
6.85942e-06
-1.10956e-07
6.86216e-06
-1.15329e-07
6.86473e-06
-1.17863e-07
-1.16853e-07
7.0424e-06
7.04223e-06
7.04256e-06
7.0435e-06
7.04467e-06
7.04581e-06
7.04662e-06
7.0468e-06
7.04605e-06
7.04412e-06
7.04102e-06
7.03705e-06
7.03255e-06
7.02787e-06
7.02338e-06
7.01948e-06
7.01638e-06
7.01405e-06
7.01198e-06
7.01064e-06
7.00994e-06
7.00972e-06
7.00977e-06
7.00984e-06
7.00969e-06
7.009e-06
7.00769e-06
7.00561e-06
7.00281e-06
6.99941e-06
6.99563e-06
6.99178e-06
6.9882e-06
6.98529e-06
6.98312e-06
6.9813e-06
6.97997e-06
6.97917e-06
6.97881e-06
6.97882e-06
6.97907e-06
6.9794e-06
6.97962e-06
6.97954e-06
6.97914e-06
6.9785e-06
6.97776e-06
6.97707e-06
6.97657e-06
6.97638e-06
6.97648e-06
6.97673e-06
6.97717e-06
6.97824e-06
6.97961e-06
6.98122e-06
6.98299e-06
6.98477e-06
6.98643e-06
6.98782e-06
6.98878e-06
6.98925e-06
6.98923e-06
6.98877e-06
6.98794e-06
6.98679e-06
6.98544e-06
6.98403e-06
6.98278e-06
6.98177e-06
6.98053e-06
6.97925e-06
6.97803e-06
6.97685e-06
6.97567e-06
6.97446e-06
6.97315e-06
6.97169e-06
6.97001e-06
6.96813e-06
6.9661e-06
6.96401e-06
6.96198e-06
6.9601e-06
6.95848e-06
6.95708e-06
6.95572e-06
6.95451e-06
6.95357e-06
6.95282e-06
6.95221e-06
6.95164e-06
6.95105e-06
6.95035e-06
6.9495e-06
6.94847e-06
6.94725e-06
6.94586e-06
6.94437e-06
6.94291e-06
6.94158e-06
6.94023e-06
6.93886e-06
6.93755e-06
6.93634e-06
6.93524e-06
6.93427e-06
6.93342e-06
6.93264e-06
6.9319e-06
6.93122e-06
6.93061e-06
6.9301e-06
6.92971e-06
6.92948e-06
6.92943e-06
6.92959e-06
6.92994e-06
6.93038e-06
6.93064e-06
3.11926e-07
4.777e-09
3.07337e-07
4.58932e-09
3.03171e-07
4.16592e-09
2.99671e-07
3.49944e-09
2.97059e-07
2.61221e-09
2.95555e-07
1.50421e-09
2.95295e-07
2.60074e-10
2.96239e-07
-9.4454e-10
2.98598e-07
-2.35894e-09
3.0237e-07
-3.77228e-09
3.07486e-07
-5.11573e-09
3.13816e-07
-6.32988e-09
3.21181e-07
-7.36491e-09
3.29357e-07
-8.17568e-09
3.38083e-07
-8.72669e-09
3.47078e-07
-8.99478e-09
3.56048e-07
-8.96974e-09
3.64703e-07
-8.6555e-09
3.72774e-07
-8.07024e-09
3.80014e-07
-7.24044e-09
3.86213e-07
-6.19925e-09
3.91197e-07
-4.98407e-09
3.94825e-07
-3.62798e-09
3.97011e-07
-2.18609e-09
3.97673e-07
-6.61191e-10
3.97036e-07
6.36756e-10
3.95014e-07
2.02227e-09
3.91683e-07
3.33071e-09
3.87167e-07
4.51615e-09
3.81614e-07
5.55245e-09
3.75197e-07
6.41763e-09
3.68101e-07
7.09595e-09
3.60525e-07
7.57566e-09
3.52673e-07
7.85202e-09
3.44752e-07
7.92059e-09
3.36972e-07
7.78025e-09
3.2954e-07
7.43196e-09
3.22654e-07
6.8858e-09
3.16499e-07
6.15481e-09
3.1124e-07
5.25925e-09
3.07019e-07
4.22144e-09
3.03944e-07
3.07494e-09
3.02115e-07
1.82845e-09
3.01566e-07
5.49508e-10
3.02118e-07
-5.52086e-10
3.03833e-07
-1.71529e-09
3.06627e-07
-2.79409e-09
3.10376e-07
-3.74905e-09
3.14931e-07
-4.55444e-09
3.20125e-07
-5.19466e-09
3.25787e-07
-5.66189e-09
3.31742e-07
-5.95494e-09
3.37821e-07
-6.07884e-09
3.43862e-07
-6.0406e-09
3.49716e-07
-5.8541e-09
3.55257e-07
-5.54109e-09
3.60379e-07
-5.12252e-09
3.65e-07
-4.62082e-09
3.69059e-07
-4.05883e-09
3.72519e-07
-3.46022e-09
3.75367e-07
-2.84773e-09
3.77608e-07
-2.24101e-09
3.79266e-07
-1.6579e-09
3.80379e-07
-1.11359e-09
3.80999e-07
-6.20027e-10
3.81186e-07
-1.86412e-10
3.81022e-07
1.63363e-10
3.80582e-07
4.40893e-10
3.79943e-07
6.38459e-10
3.79189e-07
7.53697e-10
3.78402e-07
7.87726e-10
3.77654e-07
7.47354e-10
3.77016e-07
6.38627e-10
3.76536e-07
4.79702e-10
3.76254e-07
2.81821e-10
3.76193e-07
6.0687e-11
3.76355e-07
-1.61851e-10
3.76729e-07
-3.73947e-10
3.77289e-07
-5.60135e-10
3.77979e-07
-6.89273e-10
3.78731e-07
-7.5266e-10
3.79477e-07
-7.45961e-10
3.80135e-07
-6.57666e-10
3.80616e-07
-4.80948e-10
3.80825e-07
-2.09001e-10
3.80731e-07
9.42099e-11
3.80286e-07
4.44915e-10
3.79425e-07
8.60617e-10
3.78115e-07
1.31026e-09
3.76346e-07
1.76868e-09
3.74132e-07
2.21436e-09
3.71505e-07
2.62723e-09
3.68517e-07
2.98768e-09
3.65236e-07
3.28063e-09
3.61745e-07
3.49169e-09
3.58136e-07
3.60863e-09
3.54512e-07
3.62386e-09
3.50976e-07
3.53614e-09
3.47631e-07
3.34486e-09
3.4458e-07
3.05159e-09
3.41923e-07
2.6562e-09
3.39762e-07
2.16125e-09
3.38194e-07
1.56789e-09
3.37296e-07
8.98017e-10
3.37165e-07
1.31705e-10
3.37707e-07
-5.42694e-10
3.39028e-07
-1.32074e-09
3.41149e-07
-2.12063e-09
3.44067e-07
-2.91847e-09
3.47759e-07
-3.6919e-09
3.52183e-07
-4.42373e-09
3.57279e-07
-5.09612e-09
3.6297e-07
-5.69099e-09
3.69166e-07
-6.19632e-09
3.75748e-07
-6.58134e-09
3.82612e-07
-6.864e-09
3.8957e-07
-6.95875e-09
3.96487e-07
-6.91677e-09
4.03069e-07
-6.58194e-09
-5.99577e-09
1.00528e-06
6.8557e-09
1.00307e-06
6.98834e-09
1.00101e-06
6.65257e-09
9.99338e-07
5.83568e-09
9.9831e-07
4.52745e-09
9.98083e-07
2.83918e-09
9.98835e-07
7.53174e-10
1.00072e-06
-1.62065e-09
1.00396e-06
-4.18763e-09
1.00849e-06
-6.89381e-09
1.01431e-06
-9.59121e-09
1.02134e-06
-1.2143e-08
1.02943e-06
-1.44245e-08
1.0384e-06
-1.63266e-08
1.04798e-06
-1.77564e-08
1.05789e-06
-1.8644e-08
1.06785e-06
-1.89483e-08
1.07754e-06
-1.86582e-08
1.08667e-06
-1.77896e-08
1.09498e-06
-1.63766e-08
1.10221e-06
-1.44713e-08
1.10816e-06
-1.21476e-08
1.11268e-06
-9.50462e-09
1.11568e-06
-6.62735e-09
1.11709e-06
-3.60577e-09
1.11698e-06
-5.42268e-10
1.1152e-06
2.4085e-09
1.11199e-06
5.23702e-09
1.10746e-06
7.8576e-09
1.10178e-06
1.02004e-08
1.09512e-06
1.22119e-08
1.08769e-06
1.38506e-08
1.0797e-06
1.50856e-08
1.07138e-06
1.58943e-08
1.06297e-06
1.62613e-08
1.05471e-06
1.61812e-08
1.04682e-06
1.5664e-08
1.03953e-06
1.47256e-08
1.03302e-06
1.33924e-08
1.02748e-06
1.16979e-08
1.02305e-06
9.68835e-09
1.01986e-06
7.41744e-09
1.01799e-06
4.94496e-09
1.01751e-06
2.30768e-09
1.01833e-06
-2.7248e-10
1.02058e-06
-2.80738e-09
1.02409e-06
-5.22555e-09
1.02874e-06
-7.44284e-09
1.03438e-06
-9.39004e-09
1.04085e-06
-1.10167e-08
1.04794e-06
-1.2289e-08
1.05547e-06
-1.31899e-08
1.06323e-06
-1.37168e-08
1.07103e-06
-1.3879e-08
1.07869e-06
-1.3699e-08
1.08605e-06
-1.32117e-08
1.09296e-06
-1.24579e-08
1.09932e-06
-1.14818e-08
1.10503e-06
-1.03304e-08
1.11003e-06
-9.0538e-09
1.11427e-06
-7.7011e-09
1.11774e-06
-6.31928e-09
1.12045e-06
-4.94783e-09
1.12241e-06
-3.62001e-09
1.12367e-06
-2.37832e-09
1.1243e-06
-1.24595e-09
1.12435e-06
-2.35726e-10
1.12393e-06
5.85385e-10
1.12309e-06
1.2784e-09
1.12192e-06
1.80381e-09
1.12052e-06
2.15285e-09
1.11898e-06
2.32896e-09
1.11738e-06
2.346e-09
1.11581e-06
2.21634e-09
1.11431e-06
1.97693e-09
1.11294e-06
1.64922e-09
1.11173e-06
1.27098e-09
1.11069e-06
8.81758e-10
1.10981e-06
5.00982e-10
1.10908e-06
1.69433e-10
1.10846e-06
-6.57966e-11
1.10789e-06
-1.79287e-10
1.1073e-06
-1.57444e-10
1.10663e-06
1.41151e-11
1.10581e-06
3.3872e-10
1.10479e-06
8.05046e-10
1.1035e-06
1.389e-09
1.10187e-06
2.07023e-09
1.09991e-06
2.82555e-09
1.0976e-06
3.61937e-09
1.09496e-06
4.41205e-09
1.09201e-06
5.16247e-09
1.0888e-06
5.83083e-09
1.08541e-06
6.37929e-09
1.08192e-06
6.77631e-09
1.07841e-06
6.99619e-09
1.075e-06
7.02093e-09
1.07178e-06
6.83919e-09
1.06887e-06
6.44951e-09
1.06636e-06
5.85566e-09
1.06435e-06
5.06651e-09
1.06291e-06
4.08932e-09
1.06215e-06
2.92178e-09
1.06214e-06
1.57739e-09
1.06293e-06
1.14151e-10
1.06452e-06
-1.45884e-09
1.06705e-06
-3.08059e-09
1.07048e-06
-4.75046e-09
1.07479e-06
-6.42735e-09
1.07995e-06
-8.07382e-09
1.08591e-06
-9.65269e-09
1.09261e-06
-1.1128e-08
1.09998e-06
-1.24664e-08
1.10792e-06
-1.36333e-08
1.11633e-06
-1.45997e-08
1.12508e-06
-1.53338e-08
1.13402e-06
-1.58045e-08
1.14303e-06
-1.59675e-08
1.15188e-06
-1.5771e-08
1.16059e-06
-1.52845e-08
-1.36859e-08
1.7766e-06
9.65882e-09
1.77357e-06
1.00119e-08
1.77057e-06
9.65713e-09
1.76783e-06
8.57088e-09
1.76562e-06
6.73957e-09
1.76415e-06
4.31037e-09
1.76363e-06
1.27424e-09
1.76422e-06
-2.20809e-09
1.7661e-06
-6.06792e-09
1.76932e-06
-1.01179e-08
1.7739e-06
-1.4166e-08
1.77976e-06
-1.80034e-08
1.78677e-06
-2.14379e-08
1.79474e-06
-2.42977e-08
1.80342e-06
-2.64377e-08
1.81253e-06
-2.77524e-08
1.82176e-06
-2.81802e-08
1.83081e-06
-2.77028e-08
1.83936e-06
-2.63442e-08
1.84715e-06
-2.41638e-08
1.85393e-06
-2.12503e-08
1.8595e-06
-1.77205e-08
1.8637e-06
-1.37086e-08
1.86643e-06
-9.34973e-09
1.8676e-06
-4.77686e-09
1.86728e-06
-2.27255e-10
1.86548e-06
4.21563e-09
1.86229e-06
8.41973e-09
1.85787e-06
1.22765e-08
1.85238e-06
1.569e-08
1.84601e-06
1.85846e-08
1.83896e-06
2.0903e-08
1.83144e-06
2.26055e-08
1.82367e-06
2.36622e-08
1.81588e-06
2.40535e-08
1.80828e-06
2.37811e-08
1.80108e-06
2.28639e-08
1.79448e-06
2.13269e-08
1.78866e-06
1.92087e-08
1.7838e-06
1.65637e-08
1.78003e-06
1.34565e-08
1.77748e-06
9.96359e-09
1.77625e-06
6.17422e-09
1.77637e-06
2.19295e-09
1.77784e-06
-1.74067e-09
1.78062e-06
-5.59393e-09
1.78462e-06
-9.22353e-09
1.7897e-06
-1.25208e-08
1.7957e-06
-1.53893e-08
1.80244e-06
-1.77558e-08
1.80972e-06
-1.95699e-08
1.81733e-06
-2.08043e-08
1.82507e-06
-2.14538e-08
1.83273e-06
-2.15399e-08
1.84014e-06
-2.11065e-08
1.84713e-06
-2.02072e-08
1.85358e-06
-1.89039e-08
1.85936e-06
-1.72649e-08
1.86439e-06
-1.53629e-08
1.86862e-06
-1.32761e-08
1.872e-06
-1.1083e-08
1.87453e-06
-8.85543e-09
1.87624e-06
-6.65459e-09
1.87716e-06
-4.53706e-09
1.87733e-06
-2.551e-09
1.8768e-06
-7.16636e-10
1.87568e-06
8.84055e-10
1.87402e-06
2.24643e-09
1.87194e-06
3.36003e-09
1.86953e-06
4.20871e-09
1.86691e-06
4.7789e-09
1.86416e-06
5.07394e-09
1.8614e-06
5.11072e-09
1.8587e-06
4.91646e-09
1.85614e-06
4.53097e-09
1.85379e-06
4.00073e-09
1.85169e-06
3.37832e-09
1.84984e-06
2.7228e-09
1.84827e-06
2.07949e-09
1.84693e-06
1.50348e-09
1.8458e-06
1.06666e-09
1.84482e-06
8.04285e-10
1.84392e-06
7.34386e-10
1.84305e-06
8.84548e-10
1.84213e-06
1.2664e-09
1.84107e-06
1.8628e-09
1.83981e-06
2.64572e-09
1.8383e-06
3.57999e-09
1.8365e-06
4.62379e-09
1.8344e-06
5.72424e-09
1.83199e-06
6.82271e-09
1.82929e-06
7.85809e-09
1.82635e-06
8.77033e-09
1.82323e-06
9.5038e-09
1.81999e-06
1.00096e-08
1.81674e-06
1.02491e-08
1.81356e-06
1.01977e-08
1.81056e-06
9.84214e-09
1.80783e-06
9.17884e-09
1.80547e-06
8.21511e-09
1.80357e-06
6.96491e-09
1.80223e-06
5.43661e-09
1.80153e-06
3.61925e-09
1.80156e-06
1.54304e-09
1.80237e-06
-6.90714e-10
1.80399e-06
-3.0805e-09
1.80647e-06
-5.56258e-09
1.80982e-06
-8.09455e-09
1.81402e-06
-1.06268e-08
1.81905e-06
-1.31049e-08
1.82487e-06
-1.54753e-08
1.83143e-06
-1.76855e-08
1.83865e-06
-1.96846e-08
1.84644e-06
-2.14252e-08
1.8547e-06
-2.28592e-08
1.86331e-06
-2.3947e-08
1.87214e-06
-2.46364e-08
1.88108e-06
-2.49086e-08
1.88995e-06
-2.46326e-08
1.89881e-06
-2.41464e-08
-2.1951e-08
2.61221e-06
1.50607e-08
2.60648e-06
1.57493e-08
2.60068e-06
1.54528e-08
2.5951e-06
1.41557e-08
2.58996e-06
1.18741e-08
2.58559e-06
8.68153e-09
2.58221e-06
4.6568e-09
2.58006e-06
-5.91554e-11
2.5793e-06
-5.30417e-09
2.58003e-06
-1.08511e-08
2.58229e-06
-1.64302e-08
2.58602e-06
-2.17311e-08
2.59107e-06
-2.64898e-08
2.59724e-06
-3.04636e-08
2.60425e-06
-3.34477e-08
2.61179e-06
-3.52941e-08
2.61953e-06
-3.59185e-08
2.62712e-06
-3.5299e-08
2.63425e-06
-3.34734e-08
2.64062e-06
-3.05301e-08
2.64597e-06
-2.65984e-08
2.65008e-06
-2.18353e-08
2.6528e-06
-1.64215e-08
2.654e-06
-1.0557e-08
2.6537e-06
-4.47207e-09
2.65188e-06
1.59497e-09
2.64862e-06
7.47271e-09
2.64405e-06
1.29903e-08
2.63832e-06
1.80008e-08
2.63163e-06
2.23829e-08
2.62417e-06
2.6042e-08
2.61617e-06
2.89089e-08
2.60784e-06
3.09372e-08
2.5994e-06
3.2095e-08
2.59109e-06
3.23697e-08
2.5831e-06
3.17713e-08
2.57564e-06
3.03241e-08
2.5689e-06
2.80657e-08
2.56306e-06
2.50496e-08
2.55828e-06
2.13447e-08
2.5547e-06
1.70321e-08
2.55246e-06
1.22063e-08
2.55162e-06
7.01051e-09
2.5522e-06
1.61857e-09
2.55419e-06
-3.73094e-09
2.55749e-06
-8.89359e-09
2.56197e-06
-1.37097e-08
2.56748e-06
-1.80317e-08
2.57383e-06
-2.17335e-08
2.58079e-06
-2.47206e-08
2.58815e-06
-2.69285e-08
2.59567e-06
-2.83212e-08
2.60312e-06
-2.89051e-08
2.6103e-06
-2.87226e-08
2.61703e-06
-2.78371e-08
2.62315e-06
-2.63275e-08
2.62853e-06
-2.42846e-08
2.63307e-06
-2.18059e-08
2.6367e-06
-1.89919e-08
2.63938e-06
-1.5949e-08
2.64108e-06
-1.2787e-08
2.64183e-06
-9.60644e-09
2.64166e-06
-6.48489e-09
2.64063e-06
-3.50735e-09
2.63882e-06
-7.43546e-10
2.63634e-06
1.7666e-09
2.63325e-06
3.9709e-09
2.62967e-06
5.83353e-09
2.6257e-06
7.32657e-09
2.62148e-06
8.4301e-09
2.61713e-06
9.13223e-09
2.61276e-06
9.44026e-09
2.60849e-06
9.38018e-09
2.60442e-06
8.99083e-09
2.60062e-06
8.32188e-09
2.59719e-06
7.43937e-09
2.59415e-06
6.41389e-09
2.59154e-06
5.33139e-09
2.58936e-06
4.26501e-09
2.58756e-06
3.29761e-09
2.58612e-06
2.51375e-09
2.58495e-06
1.96583e-09
2.58399e-06
1.69385e-09
2.58315e-06
1.72554e-09
2.58233e-06
2.08837e-09
2.58143e-06
2.76132e-09
2.58037e-06
3.70596e-09
2.57908e-06
4.87689e-09
2.57749e-06
6.21288e-09
2.57557e-06
7.64034e-09
2.57331e-06
9.07951e-09
2.57072e-06
1.04473e-08
2.56783e-06
1.16609e-08
2.56469e-06
1.2645e-08
2.56137e-06
1.33332e-08
2.55795e-06
1.36715e-08
2.55452e-06
1.36224e-08
2.5512e-06
1.31666e-08
2.54808e-06
1.23003e-08
2.54526e-06
1.10312e-08
2.54285e-06
9.37555e-09
2.54094e-06
7.34981e-09
2.5396e-06
4.95535e-09
2.53892e-06
2.22452e-09
2.539e-06
-7.69136e-10
2.53988e-06
-3.96284e-09
2.5416e-06
-7.27859e-09
2.54416e-06
-1.0654e-08
2.54755e-06
-1.40257e-08
2.55177e-06
-1.73259e-08
2.55679e-06
-2.04859e-08
2.56254e-06
-2.34368e-08
2.56896e-06
-2.61109e-08
2.57598e-06
-2.8445e-08
2.5835e-06
-3.03766e-08
2.59141e-06
-3.18547e-08
2.59959e-06
-3.28141e-08
2.60793e-06
-3.32562e-08
2.6163e-06
-3.29959e-08
2.62471e-06
-3.25633e-08
-3.00542e-08
3.41126e-06
2.47754e-08
3.40122e-06
2.57872e-08
3.39119e-06
2.5485e-08
3.3815e-06
2.38412e-08
3.3725e-06
2.08718e-08
3.36455e-06
1.66377e-08
3.35796e-06
1.12486e-08
3.35303e-06
4.86354e-09
3.35002e-06
-2.287e-09
3.34907e-06
-9.90727e-09
3.35026e-06
-1.76191e-08
3.35347e-06
-2.49364e-08
3.35847e-06
-3.1497e-08
3.36498e-06
-3.69662e-08
3.37259e-06
-4.10629e-08
3.38089e-06
-4.35924e-08
3.38943e-06
-4.44595e-08
3.39779e-06
-4.36554e-08
3.40556e-06
-4.12472e-08
3.41239e-06
-3.73625e-08
3.41797e-06
-3.21804e-08
3.42206e-06
-2.59172e-08
3.42445e-06
-1.88169e-08
3.42505e-06
-1.11565e-08
3.42383e-06
-3.25321e-09
3.42083e-06
4.59608e-09
3.41615e-06
1.21501e-08
3.40995e-06
1.91906e-08
3.40243e-06
2.55257e-08
3.39381e-06
3.10024e-08
3.38434e-06
3.5507e-08
3.37429e-06
3.89597e-08
3.36392e-06
4.1311e-08
3.35348e-06
4.25332e-08
3.34323e-06
4.26235e-08
3.3334e-06
4.15996e-08
3.32423e-06
3.94937e-08
3.31594e-06
3.63553e-08
3.30874e-06
3.22507e-08
3.30282e-06
2.72656e-08
3.29835e-06
2.15029e-08
3.29546e-06
1.50911e-08
3.29426e-06
8.20955e-09
3.29477e-06
1.10764e-09
3.29695e-06
-5.90885e-09
3.30067e-06
-1.26126e-08
3.30576e-06
-1.8796e-08
3.31199e-06
-2.4263e-08
3.3191e-06
-2.8848e-08
3.32681e-06
-3.24313e-08
3.33482e-06
-3.49341e-08
3.34283e-06
-3.6331e-08
3.35058e-06
-3.66515e-08
3.35782e-06
-3.59621e-08
3.36434e-06
-3.43587e-08
3.36997e-06
-3.19598e-08
3.37458e-06
-2.88965e-08
3.37807e-06
-2.52998e-08
3.38038e-06
-2.1294e-08
3.38145e-06
-1.70204e-08
3.38132e-06
-1.26576e-08
3.38006e-06
-8.34436e-09
3.37776e-06
-4.18978e-09
3.37453e-06
-2.79237e-10
3.37047e-06
3.31577e-09
3.36571e-06
6.531e-09
3.36037e-06
9.3091e-09
3.3546e-06
1.1608e-08
3.34853e-06
1.33892e-08
3.34234e-06
1.46251e-08
3.33616e-06
1.5311e-08
3.33014e-06
1.54652e-08
3.3244e-06
1.51204e-08
3.31906e-06
1.43286e-08
3.31422e-06
1.31566e-08
3.30997e-06
1.169e-08
3.30636e-06
1.0027e-08
3.30342e-06
8.27391e-09
3.30113e-06
6.54944e-09
3.29946e-06
4.96921e-09
3.29833e-06
3.64363e-09
3.29765e-06
2.65199e-09
3.29727e-06
2.06885e-09
3.29708e-06
1.91484e-09
3.29697e-06
2.19662e-09
3.2968e-06
2.93813e-09
3.29642e-06
4.07755e-09
3.29574e-06
5.56027e-09
3.29466e-06
7.29712e-09
3.29311e-06
9.18791e-09
3.29106e-06
1.1125e-08
3.28851e-06
1.29963e-08
3.28549e-06
1.46881e-08
3.28203e-06
1.60998e-08
3.27823e-06
1.71403e-08
3.27416e-06
1.77351e-08
3.26995e-06
1.78322e-08
3.26572e-06
1.74005e-08
3.26159e-06
1.64297e-08
3.25769e-06
1.4931e-08
3.25414e-06
1.29289e-08
3.25104e-06
1.04499e-08
3.24848e-06
7.51124e-09
3.24655e-06
4.15206e-09
3.24534e-06
4.39306e-10
3.24492e-06
-3.54396e-09
3.24535e-06
-7.70435e-09
3.24665e-06
-1.19586e-08
3.24885e-06
-1.62197e-08
3.25192e-06
-2.03972e-08
3.25584e-06
-2.44049e-08
3.26056e-06
-2.81567e-08
3.26602e-06
-3.15675e-08
3.27213e-06
-3.45562e-08
3.2788e-06