/*--------------------------------*- C++ -*----------------------------------*\
| =========                 |                                                 |
| \\      /  F ield         | OpenFOAM: The Open Source CFD Toolbox           |
|  \\    /   O peration     | Version:  2206                                  |
|   \\  /    A nd           | Website:  www.openfoam.com                      |
|    \\/     M anipulation  |                                                 |
\*---------------------------------------------------------------------------*/
FoamFile
{
    version     2.0;
    format      ascii;
    arch        "LSB;label=32;scalar=64";
    class       surfaceScalarField;
    location    "18.0999";
    object      ddtCorrDdt0(phi);
}
// * * * * * * * * * * * * * * * * * * * * * * * * * * * * * * * * * * * * * //

dimensions      [0 3 -2 0 0 0 0];

oriented        oriented;

internalField   nonuniform List<scalar> 
6024
(
-3.98164e-05
7.86652e-05
-3.88488e-05
-8.92849e-05
4.79458e-05
1.52264e-06
-0.000147986
1.88527e-05
3.98486e-05
-0.000210419
-1.89571e-05
8.13897e-05
-0.000281441
-7.14044e-05
0.000142427
-0.000363535
-0.000150637
0.000232731
-0.000459976
-0.000260293
0.000356734
-0.000566239
-0.000400959
0.000507222
-0.000647822
-0.000563782
0.000645365
-0.000639923
-0.000713974
0.000706075
-0.000533635
-0.000771025
0.000664736
-0.00038354
-0.000718035
0.00056794
-0.000230539
-0.000599772
0.000446771
-9.30147e-05
-0.000463172
0.000325648
2.06339e-05
-0.000330979
0.00021733
0.000105156
-0.000218903
0.000134381
0.000168018
-0.000130163
6.73007e-05
0.000224186
-6.24469e-05
6.27857e-06
0.000265032
-8.95378e-06
-3.18923e-05
0.000295258
3.30486e-05
-6.32747e-05
0.000314573
6.3935e-05
-8.32491e-05
0.000325792
8.51798e-05
-9.63992e-05
0.000331934
9.99835e-05
-0.000106125
0.000335731
0.000111349
-0.000115146
0.000340745
0.000120545
-0.00012556
0.000348202
0.000129456
-0.000136913
0.000351028
0.000146338
-0.000149164
0.00034131
0.000180361
-0.000170643
0.000337722
0.000213237
-0.000209649
0.000394868
0.000189182
-0.000246328
0.000549466
7.15707e-05
-0.000226169
0.000732212
-6.7718e-05
-0.000115028
0.000783758
-6.95377e-05
1.79922e-05
0.000651899
0.000107834
2.40247e-05
0.000397573
0.000386494
-0.000132167
0.000110454
0.000663349
-0.00037623
-0.000163727
0.000899511
-0.00062533
-0.000373506
0.00103813
-0.000828354
-0.000470235
0.00102917
-0.00093244
-0.000501846
0.00094116
-0.000909549
-0.000499943
0.000820892
-0.000822794
-0.000473555
0.000686624
-0.000713012
-0.00043034
0.000551782
-0.000594996
-0.000377142
0.000426169
-0.000479368
-0.000319715
0.000315661
-0.000373088
-0.000262491
0.000223397
-0.000280621
-0.000208575
0.000150557
-0.000204473
-0.000159963
9.67925e-05
-0.000145404
-0.000117607
6.07646e-05
-0.000103121
-8.14407e-05
4.1005e-05
-7.71709e-05
-4.96593e-05
3.66641e-05
-6.84456e-05
-1.5922e-05
5.06199e-05
-8.43572e-05
1.87957e-05
9.07011e-05
-0.000125419
5.08634e-05
0.00015012
-0.000182188
7.37985e-05
0.000217412
-0.000240348
7.41641e-05
0.000264278
-0.000264644
5.8375e-05
0.000253262
-0.000237473
4.058e-05
0.000194977
-0.000177182
2.74092e-05
0.000108474
-9.53029e-05
-1.74606e-05
1.09065e-06
4.37792e-05
-5.76997e-05
-0.000313907
0.000354146
-0.000103949
-0.000589086
0.000635335
-0.000151838
-0.000862743
0.000910631
-0.000198321
-0.00110777
0.00115425
-0.00023837
-0.00129156
0.00133161
-0.00025779
-0.00137692
0.00139634
-0.000258863
-0.00134588
0.00134695
-0.000242031
-0.00124318
0.00122635
-0.000210049
-0.00108774
0.00105576
-0.000167906
-0.00090102
0.000858876
-0.000121495
-0.000703088
0.000656677
-7.55713e-05
-0.000512176
0.000466253
-3.37854e-05
-0.000339903
0.000298117
2.92722e-06
-0.000192044
0.000155331
4.38768e-05
-7.12153e-05
3.02657e-05
9.45138e-05
2.27601e-05
-7.3397e-05
0.000128251
0.000115135
-0.000148873
0.000153111
0.000167978
-0.000192837
0.000172795
0.000191642
-0.000211326
0.000189118
0.000194742
-0.000211065
0.00020346
0.000182855
-0.000197198
0.000216946
0.000161316
-0.000174801
0.000229995
0.00013238
-0.000145429
0.000242766
9.61736e-05
-0.000108944
0.000255033
5.43488e-05
-6.66165e-05
0.000265817
1.31527e-05
-2.39368e-05
0.000274225
-1.86063e-05
1.01986e-05
0.000279323
-3.16512e-05
2.6553e-05
0.000280438
-1.92915e-05
1.81765e-05
0.000277085
2.16163e-05
-1.82633e-05
0.000269669
8.88313e-05
-8.14154e-05
0.000258888
0.000173356
-0.000162575
0.000244713
0.000264069
-0.000249894
0.000226512
0.000351648
-0.000333446
0.000203309
0.000430579
-0.000407376
0.000174217
0.000498466
-0.000469374
0.000138839
0.00055456
-0.000519182
9.75034e-05
0.000598292
-0.000556956
5.13349e-05
0.000628407
-0.000582238
2.27049e-06
0.000642181
-0.000593116
-4.6493e-05
0.000638046
-0.000589282
-9.29851e-05
0.000618693
-0.000572201
-0.000135346
0.000584301
-0.00054194
-0.000172016
0.000536435
-0.000499765
-0.000201863
0.000477731
-0.000447884
-0.000224253
0.000411506
-0.000389116
-0.000239072
0.000341391
-0.000326572
-0.000246649
0.00027095
-0.000263373
-0.000247595
0.000203341
-0.000202394
-0.000242641
0.000141168
-0.000146122
-0.000232573
8.65167e-05
-9.65845e-05
-0.000218445
4.11666e-05
-5.5295e-05
-0.000201784
6.51637e-06
-2.31768e-05
-0.000184481
-1.72833e-05
-1.96291e-08
-0.000168304
-3.19007e-05
1.57235e-05
-0.000154491
-4.05126e-05
2.66995e-05
-0.000143585
-4.68772e-05
3.59717e-05
-0.000135556
-5.41163e-05
4.60873e-05
-0.000130392
-6.40649e-05
5.89003e-05
-0.000127751
-7.97847e-05
7.71442e-05
-0.000127175
-0.000102938
0.000102362
-0.000128185
-0.000134135
0.000135145
-0.000173365
0.000175497
-3.60231e-05
0.000114688
-7.47025e-05
8.66252e-05
-0.000116418
6.05682e-05
-0.000157171
2.17958e-05
-0.000200119
-2.84561e-05
-0.000249447
-0.000101309
-0.000309189
-0.000200552
-0.000382353
-0.000327795
-0.000471289
-0.000474845
-0.000557766
-0.000627497
-0.000576987
-0.000751804
-0.000506043
-0.000788978
-0.000385909
-0.000719906
-0.000255234
-0.000593848
-0.000130448
-0.000455765
-2.31508e-05
-0.000326199
6.3306e-05
-0.00021662
0.000134307
-0.000133447
0.000187846
-6.24931e-05
0.000237016
-1.6121e-05
0.000279258
2.1693e-05
0.000306944
5.74932e-05
0.000326616
8.03117e-05
0.00034278
9.5185e-05
0.000358009
0.000105316
0.000367567
0.000119898
0.000365009
0.000148897
0.000367864
0.000177506
0.000429148
0.000151952
0.000586812
3.15185e-05
0.000776088
-0.000117706
0.000836674
-0.000128304
0.000712077
5.50594e-05
0.000454148
0.000365762
0.000168842
0.0006718
-0.000117468
0.000949659
-0.000357348
0.00113939
-0.000478821
0.00115961
-0.000526337
0.00107668
-0.000533055
0.000947879
-0.000508954
0.000796791
-0.000463382
0.000641052
-0.000404899
0.000493299
-0.000340679
0.000361949
-0.000276117
0.0002511
-0.000215069
0.000162348
-0.000159812
9.52995e-05
-0.00011128
4.82604e-05
-6.98224e-05
1.93074e-05
-3.46402e-05
5.82282e-06
-5.51457e-06
7.53847e-06
2.14611e-05
2.36442e-05
5.32046e-05
5.89576e-05
8.82413e-05
0.000115083
0.000120235
0.000185418
0.000137602
0.000246911
0.000131016
0.000259848
0.000111537
0.000214456
9.00472e-05
0.000129964
8.19181e-05
9.21979e-06
3.08444e-05
-0.000262834
-2.0911e-05
-0.00053733
-7.47246e-05
-0.000808929
-0.000129454
-0.00105304
-0.000181672
-0.00123934
-0.00021969
-0.0013389
-0.000240418
-0.00132515
-0.000243546
-0.00124006
-0.000230121
-0.00110117
-0.000203638
-0.000927503
-0.000168572
-0.000738154
-0.000129866
-0.000550883
-9.16827e-05
-0.000378086
-5.66065e-05
-0.00022712
-2.21721e-05
-0.00010565
2.4846e-05
-2.4258e-05
6.95552e-05
7.04258e-05
9.79019e-05
0.000139631
0.000121229
0.000168315
0.000140981
0.00017499
0.000158705
0.000165131
0.000175295
0.000144726
0.000191115
0.000116559
0.000206293
8.09958e-05
0.000220725
3.99174e-05
0.000233604
2.73506e-07
0.000244051
-2.90532e-05
0.000251241
-3.88417e-05
0.000254534
-2.25844e-05
0.000253932
2.22188e-05
0.000250003
9.27602e-05
0.000242909
0.00018045
0.000232315
0.000274663
0.00021727
0.000366693
0.000196576
0.000451273
0.00016928
0.000525762
0.000135053
0.000588788
9.43549e-05
0.000638989
4.85489e-05
0.000674213
-1.30374e-07
0.00069086
-4.82221e-05
0.000686137
-9.36095e-05
0.00066408
-0.000134353
0.000625045
-0.000168877
0.000570958
-0.00019609
0.000504944
-0.000215468
0.000430883
-0.000227072
0.000352996
-0.000231466
0.000275344
-0.000229492
0.000201367
-0.000221983
0.000133659
-0.000209512
7.40457e-05
-0.000192646
2.43003e-05
-0.00017278
-1.33493e-05
-0.000152118
-3.79459e-05
-0.000132831
-5.11878e-05
-0.000116388
-5.6955e-05
-0.000103384
-5.98815e-05
-9.37822e-05
-6.37182e-05
-8.74018e-05
-7.04454e-05
-8.37323e-05
-8.34542e-05
-8.22552e-05
-0.000104415
-8.25363e-05
-0.000133854
-0.000171642
-2.95533e-05
0.000144242
-6.55467e-05
0.000122619
-9.73767e-05
9.23982e-05
-0.000127089
5.15078e-05
-0.000155657
1.12657e-07
-0.000189575
-6.73913e-05
-0.000234147
-0.00015598
-0.000286926
-0.000275017
-0.000351022
-0.000410749
-0.000428203
-0.000550316
-0.000502822
-0.000677185
-0.000526977
-0.000764822
-0.000474045
-0.000772838
-0.000375877
-0.000692016
-0.000263018
-0.000568623
-0.000150229
-0.000438989
-4.72534e-05
-0.000319596
3.85299e-05
-0.000219231
0.00011327
-0.000137233
0.000169566
-7.24172e-05
0.000224473
-3.32138e-05
0.000275853
6.11295e-06
0.000318686
3.7478e-05
0.000351226
6.26459e-05
0.000372139
8.44023e-05
0.000378124
0.000113913
0.000386975
0.000140046
0.000450219
0.000114262
0.000608497
-6.32658e-06
0.000806105
-0.000166089
0.00088303
-0.00019463
0.000774279
-1.95526e-05
0.000523378
0.00030596
0.000245301
0.000643839
-5.37916e-05
0.000970893
-0.000328565
0.00122443
-0.00048212
0.00129295
-0.000551197
0.00122868
-0.00057009
0.00109558
-0.000550436
0.000928224
-0.00050293
0.000749285
-0.000438146
0.000576269
-0.000365789
0.000420941
-0.000292906
0.000289066
-0.000223744
0.000181938
-0.000161275
9.98799e-05
-0.000106313
4.0337e-05
-5.93932e-05
1.34107e-06
-2.06583e-05
-1.94274e-05
1.02187e-05
-2.50542e-05
3.67492e-05
-1.8992e-05
6.16827e-05
-1.28925e-06
8.89093e-05
3.1731e-05
0.00012085
8.31425e-05
0.000155888
0.00015038
0.000185318
0.000217482
0.000193815
0.000251351
0.000184125
0.000224147
0.000163593
0.000150496
0.000156991
1.58214e-05
0.000108151
-0.000213994
5.40771e-05
-0.000483256
-3.70178e-06
-0.00075115
-6.49388e-05
-0.000991805
-0.000126509
-0.00117777
-0.000179903
-0.00128551
-0.000216933
-0.00128812
-0.000237949
-0.00121904
-0.000242056
-0.00109706
-0.000231148
-0.000938411
-0.000208771
-0.000760531
-0.000178893
-0.00058076
-0.00014453
-0.000412449
-0.00010733
-0.00026432
-6.90422e-05
-0.000143937
-3.63631e-05
-5.69371e-05
6.53095e-06
2.75318e-05
4.1256e-05
0.000104906
6.91216e-05
0.000140449
9.23459e-05
0.000151766
0.000113257
0.00014422
0.000132654
0.000125329
0.000150851
9.83622e-05
0.000167983
6.38634e-05
0.000184046
2.38539e-05
0.000198394
-1.40739e-05
0.000210262
-4.09208e-05
0.000218827
-4.74074e-05
0.000223865
-2.7622e-05
0.000225872
2.02112e-05
0.000225115
9.35179e-05
0.000221304
0.000184261
0.000213981
0.000281986
0.000201953
0.00037872
0.000183863
0.000469363
0.000158738
0.000550887
0.000126305
0.000621221
8.71457e-05
0.000678149
4.27935e-05
0.000718565
-4.26506e-06
0.000737918
-5.03821e-05
0.000732254
-9.33673e-05
0.000707065
-0.000131274
0.000662951
-0.000162574
0.000602258
-0.000186246
0.000528616
-0.00020184
0.000446478
-0.000209556
0.000360712
-0.000210198
0.000275985
-0.000204933
0.000196101
-0.0001949
0.000123627
-0.000180556
5.97014e-05
-0.0001615
5.24482e-06
-0.000138806
-3.60435e-05
-0.000115156
-6.15965e-05
-9.31754e-05
-7.3168e-05
-7.46126e-05
-7.55178e-05
-6.00959e-05
-7.43982e-05
-4.96122e-05
-7.42019e-05
-4.25821e-05
-7.74754e-05
-3.82897e-05
-8.77467e-05
-3.62105e-05
-0.000106494
-3.59477e-05
-0.000134117
-0.000170309
-3.01656e-05
0.000174407
-5.55813e-05
0.000148034
-8.10081e-05
0.000117825
-0.000103262
7.3762e-05
-0.000124911
2.17614e-05
-0.000151145
-4.1157e-05
-0.000184878
-0.000122247
-0.000236168
-0.000223726
-0.000293252
-0.000353664
-0.000356976
-0.000486593
-0.000422574
-0.000611587
-0.000479322
-0.000708075
-0.000492792
-0.000759368
-0.000443344
-0.000741464
-0.000357746
-0.000654222
-0.000255589
-0.000541145
-0.00015089
-0.000424295
-5.27251e-05
-0.000317395
3.68539e-05
-0.000226812
0.000114748
-0.000150311
0.000179046
-9.75114e-05
0.000239293
-5.41347e-05
0.000300025
-2.32531e-05
0.000348679
1.39918e-05
0.000370293
6.27884e-05
0.000391002
9.32037e-05
0.000461024
7.00238e-05
0.000621994
-4.67083e-05
0.000828159
-0.000212491
0.000922933
-0.000260863
0.000832235
-0.000103932
0.000596229
0.000216454
0.000324887
0.000577301
1.75294e-05
0.000951197
-0.000287978
0.0012764
-0.000480681
0.00141714
-0.000577238
0.0013895
-0.000610771
0.00126222
-0.000597838
0.00108264
-0.000549287
0.000879673
-0.00047744
0.000677439
-0.000394857
0.000493685
-0.00031159
0.000337675
-0.000233623
0.000211099
-0.000163573
0.000111888
-0.00010204
3.83474e-05
-4.92825e-05
-1.24208e-05
-4.9304e-06
-4.3011e-05
3.12084e-05
-5.55663e-05
5.75883e-05
-5.14341e-05
7.74122e-05
-3.88159e-05
9.66435e-05
-2.05205e-05
0.000120277
8.09715e-06
0.000150745
5.26753e-05
0.000187203
0.000113921
0.000223407
0.000181278
0.000245313
0.000229444
0.000246767
0.000222693
0.000236662
0.000160602
0.000217154
3.53287e-05
0.000175813
-0.000172653
0.000120738
-0.000428181
5.92414e-05
-0.000689654
-7.25123e-06
-0.000925313
-7.59083e-05
-0.00110911
-0.000140687
-0.00122073
-0.000190777
-0.00123803
-0.000226663
-0.00118315
-0.0002461
-0.00107762
-0.000249394
-0.000935117
-0.000238672
-0.000771253
-0.000217097
-0.000602335
-0.000187495
-0.000442051
-0.00015229
-0.000299526
-0.00011557
-0.000180657
-8.54533e-05
-8.70542e-05
-5.11736e-05
-6.74796e-06
-1.2916e-05
6.66483e-05
1.81621e-05
0.000109371
4.43697e-05
0.000125559
6.80158e-05
0.000120574
8.98405e-05
0.000103505
0.00010995
7.82524e-05
0.000128235
4.55782e-05
0.000145243
6.84682e-06
0.000160535
-2.9366e-05
0.000173361
-5.37472e-05
0.000182367
-5.64133e-05
0.000188364
-3.36195e-05
0.000192619
1.5957e-05
0.000194486
9.16506e-05
0.000193455
0.000185291
0.000189041
0.000286401
0.000179875
0.000387887
0.00016451
0.000484728
0.000141993
0.000573404
0.000112106
0.000651108
7.55219e-05
0.000714733
3.38713e-05
0.000760215
-1.00913e-05
0.000781881
-5.26867e-05
0.00077485
-9.17646e-05
0.000746143
-0.000125502
0.000696688
-0.000152508
0.000629265
-0.000171843
0.000547951
-0.000183066
0.000457701
-0.000186409
0.000364055
-0.000182848
0.000272425
-0.000173926
0.00018718
-0.000161326
0.000111027
-0.000145554
4.39288e-05
-0.000124615
-1.56935e-05
-9.94179e-05
-6.1241e-05
-7.34228e-05
-8.75915e-05
-4.96202e-05
-9.69707e-05
-2.95547e-05
-9.55832e-05
-1.43943e-05
-8.95586e-05
-4.16944e-06
-8.44267e-05
2.8967e-06
-8.45416e-05
7.51917e-06
-9.23691e-05
1.00461e-05
-0.000109021
1.06809e-05
-0.000134751
-0.000169129
-2.88984e-05
-4.84642e-05
-6.2802e-05
-7.65557e-05
-9.34667e-05
-0.00011301
-0.000139306
-0.000185047
-0.00025194
-0.000318057
-0.000382256
-0.000434343
-0.00047165
-0.000462049
-0.000408204
-0.00032667
-0.00023067
-0.000130639
-3.3813e-05
5.90061e-05
0.000137522
0.00020595
0.000262282
0.00031755
0.0003719
0.000464074
0.000635752
0.000847401
0.000953182
0.000877203
0.000659211
0.000398953
8.85212e-05
-0.0002438
-0.000478226
-0.000607077
-0.000656805
-0.000651168
-0.000601887
-0.000522908
-0.000428671
-0.000332035
-0.00024247
-0.000163235
-9.76236e-05
-3.86157e-05
1.34675e-05
5.45926e-05
8.1327e-05
9.96185e-05
0.00011445
0.000129671
0.000149421
0.000177144
0.000213218
0.000252871
0.000285394
0.000297954
0.00029521
0.000275467
0.000234457
0.00017807
0.000112963
4.21367e-05
-3.17055e-05
-0.000103603
-0.000163674
-0.00021106
-0.000242795
-0.000258088
-0.000257808
-0.000244368
-0.000220965
-0.000191142
-0.000159128
-0.000129139
-9.83671e-05
-6.26648e-05
-3.00282e-05
-1.58348e-06
2.36399e-05
4.70448e-05
6.87617e-05
8.75744e-05
0.000104955
0.0001206
0.000133628
0.00014198
0.000147994
0.000154589
0.000158185
0.000159218
0.000157221
0.000150647
0.000138072
0.000118588
9.20389e-05
5.91558e-05
2.16202e-05
-1.75398e-05
-5.4843e-05
-8.83389e-05
-0.000116483
-0.000138118
-0.000152412
-0.000158916
-0.000157748
-0.00014979
-0.000136806
-0.000121506
-0.000105035
-8.13979e-05
-5.38512e-05
-2.6659e-05
-2.83086e-06
1.55077e-05
2.99826e-05
-0.000104034
4.11576e-05
-9.56018e-05
4.86949e-05
-9.20788e-05
5.33853e-05
-9.70595e-05
5.58584e-05
-0.000111494
5.63909e-05
-0.000135284
-0.000167744
7.69721e-05
8.61809e-05
9.24714e-05
9.63678e-05
9.83703e-05
9.86291e-05
-0.000220119
-7.59829e-05
-0.000195899
-0.00013278
-0.000138275
-0.00025431
-7.44569e-05
-0.000277304
-6.94596e-06
9.83243e-05
-8.6204e-06
9.82358e-05
8.84334e-08
9.34073e-05
4.82849e-06
8.7324e-05
6.08334e-06
8.12026e-05
6.12143e-06
7.65489e-05
4.6537e-06
7.52232e-05
1.32568e-06
7.90665e-05
-3.84329e-06
8.92937e-05
-1.02272e-05
0.000102158
-1.28641e-05
0.000110812
-8.65433e-06
0.000115944
-5.13236e-06
0.000116004
-5.94123e-08
0.000108359
7.64522e-06
9.35656e-05
1.4793e-05
7.03816e-05
2.31841e-05
4.07745e-05
2.96071e-05
4.64706e-06
3.61274e-05
-2.48196e-05
2.94667e-05
-5.12645e-05
2.64448e-05
-7.47848e-05
2.35203e-05
-8.8609e-05
1.38242e-05
-9.45365e-05
5.92753e-06
-9.366e-05
-8.76476e-07
-8.95027e-05
-4.15738e-06
-8.70223e-05
-2.48039e-06
-8.82539e-05
1.23162e-06
-9.44638e-05
6.20988e-06
-0.000104374
9.91046e-06
-0.000113935
9.56119e-06
-0.000117914
3.97843e-06
-0.000114443
-3.47107e-06
-0.000100467
-1.39761e-05
-8.29227e-05
-1.75441e-05
-6.56316e-05
-1.72911e-05
-4.5106e-05
-2.05256e-05
-1.21578e-05
-3.29482e-05
2.65158e-05
-3.86736e-05
7.84931e-05
-5.19772e-05
0.000133403
-5.491e-05
0.000180846
-4.74425e-05
0.000215321
-3.44752e-05
0.000217327
-2.00595e-06
0.000199462
1.78647e-05
0.000161364
3.80978e-05
0.000103339
5.80251e-05
2.8075e-05
7.5264e-05
-6.95149e-05
9.75899e-05
-0.000144666
7.51509e-05
-0.000216307
7.16416e-05
-0.000267494
5.11868e-05
-0.000294921
2.74266e-05
-0.000307494
1.25737e-05
-0.000307895
4.0025e-07
-0.000297563
-1.03312e-05
-0.000273338
-2.42258e-05
-0.000229174
-4.41639e-05
-0.000161746
-6.74277e-05
-7.28125e-05
-8.89336e-05
3.69189e-05
-0.000109731
0.000146312
-0.000109393
0.000257898
-0.000111585
0.000351323
-9.34253e-05
0.000412198
-6.08749e-05
0.000433942
-2.17439e-05
0.000416663
1.72786e-05
0.000363324
5.33386e-05
0.000283999
7.93255e-05
0.000189776
9.42233e-05
0.000118095
7.16802e-05
4.04867e-05
7.76087e-05
-2.89989e-05
6.94857e-05
-8.58269e-05
5.6828e-05
-0.000128678
4.28512e-05
-0.000157724
2.90454e-05
-0.000173956
1.62321e-05
-0.000178889
4.93364e-06
-0.000172983
-5.90612e-06
-0.000158404
-1.45791e-05
-0.000138067
-2.03369e-05
-0.000114904
-2.31634e-05
-9.13148e-05
-2.3589e-05
-6.87535e-05
-2.25614e-05
-4.75478e-05
-2.12056e-05
-2.626e-05
-2.12878e-05
-9.00748e-06
-1.72525e-05
8.31899e-06
-1.73265e-05
2.46855e-05
-1.63665e-05
3.96611e-05
-1.49756e-05
5.22861e-05
-1.2625e-05
6.12037e-05
-8.9176e-06
6.62393e-05
-5.03562e-06
6.80465e-05
-1.80724e-06
6.72376e-05
8.08904e-07
6.44799e-05
2.75771e-06
5.99242e-05
4.55576e-06
5.35344e-05
6.38973e-06
4.53063e-05
8.22812e-06
3.5164e-05
1.01424e-05
2.32377e-05
1.19262e-05
9.76688e-06
1.34708e-05
-5.12162e-06
1.48885e-05
-1.75321e-05
1.24105e-05
-3.04699e-05
1.29377e-05
-4.22623e-05
1.17924e-05
-5.22578e-05
9.99553e-06
-6.01828e-05
7.92495e-06
-6.59061e-05
5.72329e-06
-6.93986e-05
3.49259e-06
-7.0876e-05
1.4774e-06
-7.06546e-05
-2.21432e-07
-6.90388e-05
-1.61584e-06
-6.62009e-05
-2.83784e-06
-6.20654e-05
-4.13556e-06
-5.64477e-05
-5.61762e-06
-4.94827e-05
-6.96505e-06
-4.13405e-05
-8.14222e-06
-3.18987e-05
-9.44173e-06
-2.09265e-05
-1.09722e-05
-8.96139e-06
-1.19652e-05
3.1134e-06
-1.20748e-05
1.64261e-05
-1.33127e-05
-1.31957e-05
6.88652e-05
-2.48941e-05
8.9832e-05
-2.08784e-05
0.000109999
-1.53386e-05
0.000126549
-1.04664e-05
0.00013877
-6.10022e-06
0.0001455
-2.0761e-06
0.000145153
1.6733e-06
0.000135863
5.4465e-06
0.000116025
9.61085e-06
8.88859e-05
1.42749e-05
6.07141e-05
1.95174e-05
3.16659e-05
2.39159e-05
3.90879e-06
2.76977e-05
-2.09903e-05
3.25443e-05
-4.50819e-05
3.88847e-05
-6.67901e-05
4.48923e-05
-8.48706e-05
4.76876e-05
-9.53487e-05
4.66055e-05
-0.00010763
4.17476e-05
-0.000114978
3.37933e-05
-0.000118248
2.679e-05
-0.000113267
8.84319e-06
-0.00010642
-9.1901e-07
-9.78448e-05
-9.4519e-06
-8.80075e-05
-1.39947e-05
-7.77238e-05
-1.27641e-05
-6.98261e-05
-6.66605e-06
-6.50381e-05
1.42194e-06
-6.22929e-05
7.16521e-06
-6.0965e-05
8.23334e-06
-6.01903e-05
3.20373e-06
-5.89901e-05
-4.6713e-06
-5.47025e-05
-1.82637e-05
-4.45454e-05
-2.77012e-05
-3.707e-05
-2.47664e-05
-2.98846e-05
-2.7711e-05
-1.71959e-05
-4.56369e-05
3.43196e-05
-9.01892e-05
8.87652e-05
-0.000106423
0.000136622
-0.000102766
0.000164902
-7.5723e-05
0.000165128
-3.47014e-05
0.000169119
-5.99667e-06
0.000151074
3.59093e-05
0.000108777
8.03956e-05
4.93214e-05
0.00011748
-2.28854e-05
0.000147471
-8.29374e-05
0.000157642
-0.000150293
0.000142506
-0.000199137
0.000120486
-0.000226469
7.85184e-05
-0.000236494
3.74521e-05
-0.000230423
6.50262e-06
-0.000219027
-1.09956e-05
-0.000205535
-2.3823e-05
-0.000193506
-3.6255e-05
-0.000172733
-6.49367e-05
-0.000132411
-0.00010775
-6.0982e-05
-0.000160363
4.30802e-05
-0.000213794
0.000171901
-0.000238215
0.000292298
-0.000231982
0.000382497
-0.000183625
0.000427455
-0.000105833
0.000423947
-1.82361e-05
0.000386071
5.51545e-05
0.000321754
0.000117655
0.000243451
0.000157629
0.000159541
0.000178134
8.87371e-05
0.000142484
1.14243e-05
0.000154921
-5.54771e-05
0.000136387
-0.000111904
0.000113254
-0.000157705
8.86527e-05
-0.000193251
6.45913e-05
-0.00021675
3.97315e-05
-0.000229455
1.76383e-05
-0.000230155
-5.20574e-06
-0.000217412
-2.73229e-05
-0.00019217
-4.55782e-05
-0.000158194
-5.71401e-05
-0.000119913
-6.18692e-05
-8.19522e-05
-6.05224e-05
-4.74835e-05
-5.56743e-05
-1.69644e-05
-5.18069e-05
1.36397e-05
-4.78566e-05
3.96755e-05
-4.33623e-05
5.96565e-05
-3.63475e-05
7.46171e-05
-2.99362e-05
8.50078e-05
-2.30157e-05
8.97101e-05
-1.36198e-05
8.97381e-05
-5.06364e-06
8.67675e-05
1.16338e-06
8.16717e-05
5.90463e-06
7.53617e-05
9.06772e-06
6.75825e-05
1.23349e-05
5.7513e-05
1.64592e-05
4.516e-05
2.05812e-05
3.12111e-05
2.40912e-05
1.64383e-05
2.66991e-05
1.4352e-06
2.84739e-05
-1.37082e-05
3.00319e-05
-3.00741e-05
2.87764e-05
-4.48355e-05
2.76991e-05
-5.77818e-05
2.47387e-05
-6.85344e-05
2.07481e-05
-7.68999e-05
1.62905e-05
-8.26987e-05
1.15221e-05
-8.57648e-05
6.55864e-06
-8.61673e-05
1.87996e-06
-8.4244e-05
-2.14478e-06
-8.03274e-05
-5.53237e-06
-7.44935e-05
-8.6718e-06
-6.66188e-05
-1.20103e-05
-5.66066e-05
-1.56297e-05
-4.52993e-05
-1.82724e-05
-3.35102e-05
-1.99313e-05
-2.11435e-05
-2.18085e-05
-7.49813e-06
-2.46176e-05
4.49836e-06
-2.39616e-05
1.98665e-05
-2.74429e-05
3.37293e-05
-2.71755e-05
-2.62207e-05
3.42901e-05
-3.53919e-05
4.67205e-05
-3.33089e-05
6.06866e-05
-2.93047e-05
7.49561e-05
-2.47358e-05
8.83976e-05
-1.95418e-05
9.98822e-05
-1.35607e-05
0.000108224
-6.66856e-06
0.000112433
1.23786e-06
0.000111304
1.07392e-05
0.000103611
2.1968e-05
8.93879e-05
3.37408e-05
6.83635e-05
4.49402e-05
4.11993e-05
5.48619e-05
1.08333e-05
6.29103e-05
-1.87813e-05
6.84993e-05
-4.48681e-05
7.09791e-05
-6.69186e-05
6.97381e-05
-8.46764e-05
6.43633e-05
-9.76987e-05
5.47699e-05
-0.000105212
4.13061e-05
-0.00010585
2.74289e-05
-0.000108642
1.16348e-05
-0.000108362
-1.19928e-06
-0.000106957
-1.08563e-05
-0.000101541
-1.94112e-05
-9.25776e-05
-2.17274e-05
-7.99421e-05
-1.93015e-05
-6.20113e-05
-1.65089e-05
-3.7723e-05
-1.7123e-05
-7.88583e-06
-2.16039e-05
2.57263e-05
-3.04084e-05
5.78381e-05
-3.67831e-05
7.73988e-05
-3.78244e-05
8.6505e-05
-3.68074e-05
6.89156e-05
-7.17707e-06
4.22103e-05
-1.00566e-06
1.68971e-05
-2.03238e-05
2.68516e-06
-7.59772e-05
1.84663e-05
-0.000122204
4.5564e-05
-0.000129864
5.93189e-05
-8.94778e-05
5.63241e-05
-3.17066e-05
4.30528e-05
7.27469e-06
2.51689e-05
5.37932e-05
-4.08629e-06
0.000109651
-3.35528e-05
0.000146947
-6.08656e-05
0.000174784
-8.71354e-05
0.000183912
-0.000120605
0.000175975
-0.000129112
0.000128993
-0.000114896
6.4303e-05
-8.61195e-05
8.67551e-06
-4.98304e-05
-2.97865e-05
-1.14415e-05
-4.93845e-05
2.19166e-05
-5.71812e-05
4.36806e-05
-5.80191e-05
4.81599e-05
-6.94159e-05
3.64324e-05
-9.60223e-05
2.21432e-05
-0.000146074
3.26372e-05
-0.000224288
9.25958e-05
-0.000298173
0.000197526
-0.000336912
0.000285186
-0.000271284
0.000330898
-0.000151545
0.000339472
-2.68106e-05
0.000335032
5.95953e-05
0.000299138
0.000153549
0.000244094
0.000212672
0.000182472
0.000239756
0.000103284
0.000221672
4.11428e-05
0.000217063
-1.67294e-05
0.000194259
-6.86256e-05
0.000165151
-0.000113841
0.000133868
-0.00015183
0.000102581
-0.000179738
6.76388e-05
-0.000203203
4.11038e-05
-0.000220828
1.24191e-05
-0.000228942
-1.92088e-05
-0.000225592
-4.8928e-05
-0.000211136
-7.15964e-05
-0.000186274
-8.67312e-05
-0.000152241
-9.45555e-05
-0.000112123
-9.57925e-05
-7.05242e-05
-9.34054e-05
-2.80317e-05
-9.03492e-05
1.44686e-05
-8.58625e-05
5.22738e-05
-7.41527e-05
8.15513e-05
-5.92137e-05
0.000101184
-4.26483e-05
0.000107718
-2.01543e-05
0.000106715
-4.05996e-06
0.000103393
4.48471e-06
9.72963e-05
1.20016e-05
9.01036e-05
1.62605e-05
8.12378e-05
2.12007e-05
7.00085e-05
2.76885e-05
5.70271e-05
3.35626e-05
4.27388e-05
3.83795e-05
2.77267e-05
4.17112e-05
1.20448e-05
4.41558e-05
-4.96051e-06
4.70373e-05
-1.96034e-05
4.34193e-05
-3.4238e-05
4.23337e-05
-4.64324e-05
3.69331e-05
-5.62118e-05
3.05276e-05
-6.38511e-05
2.39298e-05
-6.96759e-05
1.73468e-05
-7.38298e-05
1.07126e-05
-7.64887e-05
4.53878e-06
-7.80111e-05
-6.22351e-07
-7.89319e-05
-4.61155e-06
-7.91051e-05
-8.49858e-06
-7.79215e-05
-1.31939e-05
-7.30872e-05
-2.0464e-05
-6.51553e-05
-2.62043e-05
-5.43693e-05
-3.07172e-05
-4.09254e-05
-3.52524e-05
-2.57362e-05
-3.98067e-05
-5.28568e-06
-4.44122e-05
1.31086e-05
-4.58372e-05
3.02619e-05
-4.43288e-05
-4.14779e-05
1.73817e-05
-4.3873e-05
2.68776e-05
-4.28049e-05
3.76431e-05
-4.00703e-05
4.92575e-05
-3.63502e-05
6.11613e-05
-3.14455e-05
7.28487e-05
-2.52482e-05
8.37312e-05
-1.75511e-05
9.32221e-05
-8.25297e-06
0.000101153
2.80841e-06
0.000107468
1.56526e-05
0.000111728
2.94811e-05
0.00011357
4.30981e-05
0.000112775
5.56568e-05
0.000109351
6.63346e-05
0.000103642
7.42086e-05
9.61839e-05
7.84369e-05
8.74604e-05
7.84616e-05
7.77877e-05
7.40359e-05
6.74577e-05
6.51e-05
5.58816e-05
5.28822e-05
4.45493e-05
3.87611e-05
3.20486e-05
2.41355e-05
1.99866e-05
1.08627e-05
8.98118e-06
1.49143e-07
-2.21582e-06
-8.21416e-06
-1.07002e-05
-1.32431e-05
-1.48599e-05
-1.51417e-05
-1.58393e-05
-1.55295e-05
-1.27514e-05
-2.02109e-05
-1.37367e-05
-2.06186e-05
-1.47939e-05
-2.93511e-05
-1.66211e-05
-3.49559e-05
-7.2714e-06
-4.71741e-05
5.63458e-06
-4.97134e-05
3.83406e-05
-3.98831e-05
8.15503e-05
-4.42153e-05
0.000113672
-5.24457e-05
9.95512e-05
-6.18562e-05
5.62006e-05
-7.88533e-05
1.78469e-06
-7.54483e-05
-4.95927e-05
-3.81004e-05
-7.91915e-05
-2.10792e-06
-0.000103455
3.15384e-05
-0.000128427
7.87653e-05
-0.000150536
0.000131759
-0.000167404
0.000163815
-0.000174847
0.000182226
-0.000179916
0.000188981
-0.000177431
0.00017349
-0.000161505
0.000113067
-0.000133396
3.61943e-05
-0.000101246
-2.34749e-05
-6.12923e-05
-6.97398e-05
-1.09446e-05
-9.97322e-05
5.00512e-05
-0.000118177
0.000127343
-0.00013531
0.000210127
-0.0001522
0.000277107
-0.000163003
0.000293502
-0.000162468
0.000240389
-0.000171175
0.000168916
-0.000226701
0.000131443
-0.000299439
0.000138491
-0.000278332
0.000170599
-0.000183654
0.000216756
-7.2968e-05
0.00025736
1.89913e-05
0.000274279
0.00013663
0.000263648
0.000223304
0.000233594
0.00026981
0.000177233
0.000278033
0.000127865
0.00026643
8.03865e-05
0.000241738
3.34366e-05
0.000212101
-1.21449e-05
0.00017945
-5.2976e-05
0.000143412
-8.64265e-05
0.000101089
-0.000111682
6.63595e-05
-0.000134269
3.50062e-05
-0.000155044
1.56632e-06
-0.000164876
-3.90969e-05
-0.000168274
-6.81979e-05
-0.000166846
-8.81591e-05
-0.000160124
-0.000101278
-0.000146304
-0.000109612
-0.000124516
-0.000115193
-9.69099e-05
-0.000117956
-6.82886e-05
-0.000114484
-3.80763e-05
-0.000104365
-7.0396e-06
-9.02503e-05
2.35305e-05
-7.32184e-05
5.09991e-05
-4.76228e-05
7.20237e-05
-2.50846e-05
8.50951e-05
-8.5867e-06
8.99025e-05
7.19413e-06
9.03828e-05
1.57802e-05
8.32263e-05
2.83572e-05
6.86613e-05
4.22535e-05
5.17197e-05
5.05042e-05
3.36398e-05
5.64594e-05
1.54722e-05
5.98789e-05
-2.33578e-06
6.19638e-05
-1.84389e-05
6.31404e-05
-3.38969e-05
5.88772e-05
-4.23547e-05
5.07916e-05
-4.59275e-05
4.05059e-05
-4.54472e-05
3.00473e-05
-4.17891e-05
2.02717e-05
-3.59738e-05
1.15315e-05
-2.92948e-05
4.03353e-06
-2.34198e-05
-1.33616e-06
-1.94391e-05
-4.60306e-06
-1.57864e-05
-8.26423e-06
-1.41347e-05
-1.01503e-05
-1.44387e-05
-1.28899e-05
-1.68713e-05
-1.80314e-05
-2.13833e-05
-2.16923e-05
-2.73713e-05
-2.47293e-05
-3.35107e-05
-2.91129e-05
-3.86472e-05
-3.46703e-05
-3.8952e-05
-4.41073e-05
-3.3148e-05
-5.16413e-05
-2.10126e-05
-5.64642e-05
-5.99775e-05
1.06056e-05
-5.17872e-05
1.93565e-05
-5.15558e-05
2.9109e-05
-4.98227e-05
3.97206e-05
-4.69618e-05
5.08388e-05
-4.25638e-05
6.22938e-05
-3.67031e-05
7.39989e-05
-2.92562e-05
8.57602e-05
-2.00143e-05
9.75384e-05
-8.96982e-06
0.000109389
3.8017e-06
0.000121357
1.75131e-05
0.000133196
3.12597e-05
0.000144337
4.45157e-05
0.000154242
5.64292e-05
0.000162454
6.59968e-05
0.000168544
7.2347e-05
0.000172047
7.4958e-05
0.000172664
7.34192e-05
0.000170474
6.72897e-05
0.000165046
5.83106e-05
0.000155944
4.78627e-05
0.000143554
3.65263e-05
0.000129021
2.53951e-05
0.000113459
1.57115e-05
9.71594e-05
8.08532e-06
8.12883e-05
2.62792e-06
6.74934e-05
-1.34683e-06
5.63504e-05
-4.38654e-06
4.3943e-05
-7.80347e-06
3.47866e-05
-1.14623e-05
2.41056e-05
-1.86701e-05
1.51992e-05
-2.60495e-05
5.06668e-07
-3.24816e-05
-1.51304e-05
-3.40763e-05
-2.27695e-05
-3.2244e-05
-3.07337e-05
-3.62512e-05
-3.72093e-05
-4.59701e-05
-4.2164e-05
-5.69014e-05
-5.82664e-05
-6.27509e-05
-9.16101e-05
-4.21046e-05
-0.0001278
-1.91026e-06
-0.00016088
3.09715e-05
-0.000198275
6.89334e-05
-0.000230326
0.000110817
-0.000249463
0.000150897
-0.000258444
0.000172795
-0.000262358
0.00018614
-0.000256403
0.000183027
-0.000242692
0.000159779
-0.000221842
9.22167e-05
-0.000197211
1.15638e-05
-0.000182792
-3.78941e-05
-0.000168101
-8.44307e-05
-0.000142445
-0.000125388
-0.000101924
-0.000158699
-4.69325e-05
-0.000190301
2.23277e-05
-0.00022146
0.000108003
-0.000248678