/*--------------------------------*- C++ -*----------------------------------*\
| =========                 |                                                 |
| \\      /  F ield         | OpenFOAM: The Open Source CFD Toolbox           |
|  \\    /   O peration     | Version:  2206                                  |
|   \\  /    A nd           | Website:  www.openfoam.com                      |
|    \\/     M anipulation  |                                                 |
\*---------------------------------------------------------------------------*/
FoamFile
{
    version     2.0;
    format      ascii;
    arch        "LSB;label=32;scalar=64";
    class       volVectorField;
    location    "19.8999";
    object      U;
}
// * * * * * * * * * * * * * * * * * * * * * * * * * * * * * * * * * * * * * //

dimensions      [0 1 -1 0 0 0 0];

internalField   nonuniform List<vector> 
4830
(
(1.45285 0.100138 0)
(1.46272 0.0160543 0)
(1.4729 -0.0645961 0)
(1.48303 -0.13985 0)
(1.4927 -0.208136 0)
(1.50155 -0.268348 0)
(1.50928 -0.319894 0)
(1.51562 -0.362641 0)
(1.52043 -0.396877 0)
(1.52361 -0.42322 0)
(1.52513 -0.442523 0)
(1.52503 -0.455772 0)
(1.52345 -0.46398 0)
(1.52015 -0.468088 0)
(1.51497 -0.468427 0)
(1.50808 -0.465891 0)
(1.49961 -0.461337 0)
(1.48985 -0.455164 0)
(1.47908 -0.447395 0)
(1.46768 -0.437701 0)
(1.45603 -0.425494 0)
(1.44459 -0.410036 0)
(1.43381 -0.390575 0)
(1.42411 -0.366463 0)
(1.41589 -0.33726 0)
(1.40944 -0.30278 0)
(1.40497 -0.263122 0)
(1.40285 -0.218644 0)
(1.4026 -0.169993 0)
(1.40469 -0.117929 0)
(1.40954 -0.0633693 0)
(1.41649 -0.00743975 0)
(1.42542 0.0485562 0)
(1.43596 0.103462 0)
(1.44777 0.156432 0)
(1.46051 0.206729 0)
(1.47386 0.253763 0)
(1.48749 0.297076 0)
(1.50112 0.336335 0)
(1.51455 0.371322 0)
(1.52759 0.401898 0)
(1.54013 0.427995 0)
(1.55206 0.449613 0)
(1.56334 0.466816 0)
(1.57392 0.47971 0)
(1.58379 0.488403 0)
(1.59313 0.492824 0)
(1.60224 0.492153 0)
(1.61072 0.485457 0)
(1.61865 0.472329 0)
(1.62596 0.45256 0)
(1.63257 0.426048 0)
(1.63842 0.392815 0)
(1.64345 0.353046 0)
(1.64756 0.307122 0)
(1.65065 0.255641 0)
(1.65259 0.199418 0)
(1.65331 0.139504 0)
(1.65272 0.0772755 0)
(1.65078 0.0147014 0)
(1.64745 -0.0464634 0)
(1.64274 -0.104942 0)
(1.63666 -0.159629 0)
(1.62925 -0.209641 0)
(1.62058 -0.254334 0)
(1.61074 -0.293323 0)
(1.59982 -0.326457 0)
(1.58793 -0.353789 0)
(1.5752 -0.375534 0)
(1.56172 -0.391997 0)
(1.54759 -0.403498 0)
(1.53288 -0.410291 0)
(1.51767 -0.412546 0)
(1.50221 -0.410508 0)
(1.48663 -0.404508 0)
(1.47109 -0.394794 0)
(1.45579 -0.381533 0)
(1.44092 -0.364847 0)
(1.42661 -0.344844 0)
(1.41303 -0.32166 0)
(1.40029 -0.295478 0)
(1.38848 -0.266538 0)
(1.37769 -0.235132 0)
(1.368 -0.201593 0)
(1.35946 -0.166284 0)
(1.35215 -0.12959 0)
(1.34612 -0.0919147 0)
(1.34141 -0.053707 0)
(1.33805 -0.0154748 0)
(1.33603 0.0223771 0)
(1.33532 0.0594506 0)
(1.33586 0.0953423 0)
(1.3376 0.129655 0)
(1.34043 0.162001 0)
(1.34425 0.192014 0)
(1.34895 0.21936 0)
(1.35442 0.243746 0)
(1.36056 0.264919 0)
(1.36727 0.282676 0)
(1.37445 0.296862 0)
(1.382 0.307376 0)
(1.38984 0.314135 0)
(1.39813 0.316869 0)
(1.40673 0.31511 0)
(1.41556 0.308799 0)
(1.42467 0.298022 0)
(1.43398 0.282917 0)
(1.44346 0.26368 0)
(1.45311 0.240562 0)
(1.4629 0.213873 0)
(1.4728 0.183987 0)
(1.48278 0.151346 0)
(1.49281 0.116455 0)
(1.50282 0.0798826 0)
(1.51274 0.0422817 0)
(1.52241 0.00447663 0)
(1.5317 -0.0328357 0)
(1.5405 -0.0691179 0)
(1.5487 -0.103887 0)
(1.55619 -0.136707 0)
(1.56285 -0.16722 0)
(1.56861 -0.195151 0)
(1.57338 -0.220309 0)
(1.57712 -0.242578 0)
(1.57981 -0.261911 0)
(1.58144 -0.278319 0)
(1.58204 -0.291852 0)
(1.58168 -0.302594 0)
(1.58043 -0.310617 0)
(1.57847 -0.316011 0)
(1.57583 -0.318884 0)
(1.5724 -0.319007 0)
(1.56835 -0.316153 0)
(1.56381 -0.310081 0)
(1.55905 -0.300631 0)
(1.5543 -0.287702 0)
(1.54969 -0.271176 0)
(1.54533 -0.250967 0)
(1.49812 0.089255 0)
(1.50807 0.00490809 0)
(1.51778 -0.0756114 0)
(1.5269 -0.150316 0)
(1.5351 -0.217655 0)
(1.54208 -0.276581 0)
(1.54762 -0.326575 0)
(1.55157 -0.367593 0)
(1.55387 -0.400008 0)
(1.55452 -0.424512 0)
(1.55357 -0.442017 0)
(1.55117 -0.453535 0)
(1.54735 -0.460067 0)
(1.5417 -0.462191 0)
(1.53449 -0.46053 0)
(1.52573 -0.456276 0)
(1.51562 -0.450229 0)
(1.50438 -0.442835 0)
(1.49224 -0.434181 0)
(1.47951 -0.424007 0)
(1.46656 -0.411782 0)
(1.45381 -0.396805 0)
(1.4417 -0.378322 0)
(1.43069 -0.355651 0)
(1.42116 -0.328291 0)
(1.41344 -0.295991 0)
(1.40782 -0.258748 0)
(1.4045 -0.216784 0)
(1.40364 -0.170717 0)
(1.4051 -0.121396 0)
(1.40918 -0.0695751 0)
(1.41554 -0.0161192 0)
(1.42403 0.0378173 0)
(1.43429 0.0910045 0)
(1.44602 0.142617 0)
(1.4589 0.191931 0)
(1.47261 0.23834 0)
(1.48683 0.281351 0)
(1.50131 0.320589 0)
(1.5158 0.355782 0)
(1.53013 0.386745 0)
(1.54413 0.41337 0)
(1.55771 0.435617 0)
(1.57078 0.453501 0)
(1.58331 0.467073 0)
(1.59527 0.476373 0)
(1.60681 0.48126 0)
(1.61813 0.481037 0)
(1.62889 0.474906 0)
(1.63913 0.462457 0)
(1.64875 0.443457 0)
(1.65763 0.417799 0)
(1.66567 0.385519 0)
(1.67275 0.346826 0)
(1.67871 0.302122 0)
(1.68339 0.252011 0)
(1.68664 0.197297 0)
(1.68835 0.138997 0)
(1.68841 0.0784476 0)
(1.68677 0.0175901 0)
(1.68344 -0.0418586 0)
(1.67843 -0.0986462 0)
(1.67179 -0.151696 0)
(1.66363 -0.200149 0)
(1.65404 -0.243389 0)
(1.64315 -0.281048 0)
(1.6311 -0.312992 0)
(1.61802 -0.339284 0)
(1.60408 -0.36013 0)
(1.58939 -0.375822 0)
(1.5741 -0.386667 0)
(1.55827 -0.392922 0)
(1.54203 -0.394797 0)
(1.52564 -0.392573 0)
(1.5092 -0.386583 0)
(1.49288 -0.377082 0)
(1.47689 -0.364236 0)
(1.46139 -0.348158 0)
(1.44655 -0.328936 0)
(1.43253 -0.30668 0)
(1.41944 -0.281547 0)
(1.40738 -0.253752 0)
(1.39643 -0.223571 0)
(1.38664 -0.191327 0)
(1.37808 -0.157377 0)
(1.37077 -0.122098 0)
(1.36476 -0.0858842 0)
(1.36009 -0.0491724 0)
(1.35676 -0.0124456 0)
(1.35477 0.023919 0)
(1.35411 0.0595476 0)
(1.35471 0.0940588 0)
(1.35653 0.127075 0)
(1.35948 0.158226 0)
(1.36348 0.187159 0)
(1.36841 0.213542 0)
(1.37418 0.23708 0)
(1.38069 0.257519 0)
(1.38785 0.27465 0)
(1.39555 0.288311 0)
(1.40368 0.298382 0)
(1.41219 0.304738 0)
(1.42119 0.307053 0)
(1.43051 0.304923 0)
(1.44011 0.298316 0)
(1.44997 0.287296 0)
(1.46001 0.27199 0)
(1.47019 0.252587 0)
(1.48048 0.229335 0)
(1.49083 0.202548 0)
(1.5012 0.172607 0)
(1.51154 0.139961 0)
(1.52178 0.105128 0)
(1.53186 0.0687028 0)
(1.54168 0.0313854 0)
(1.55105 -0.00596486 0)
(1.55986 -0.0426976 0)
(1.56801 -0.0782746 0)
(1.57538 -0.112211 0)
(1.58188 -0.144084 0)
(1.58741 -0.173554 0)
(1.59191 -0.200362 0)
(1.59533 -0.22434 0)
(1.59765 -0.245398 0)
(1.59886 -0.263519 0)
(1.59898 -0.278746 0)
(1.59807 -0.291156 0)
(1.59618 -0.300854 0)
(1.59344 -0.307949 0)
(1.5899 -0.312526 0)
(1.58549 -0.314535 0)
(1.58037 -0.313818 0)
(1.57467 -0.31035 0)
(1.56856 -0.303954 0)
(1.5623 -0.294441 0)
(1.5561 -0.281643 0)
(1.55012 -0.265405 0)
(1.5445 -0.245623 0)
(1.54763 0.0780944 0)
(1.55742 -0.0058617 0)
(1.56637 -0.0856214 0)
(1.57418 -0.159205 0)
(1.58059 -0.225105 0)
(1.58539 -0.282356 0)
(1.58847 -0.330519 0)
(1.58979 -0.369647 0)
(1.58937 -0.400188 0)
(1.58732 -0.422896 0)
(1.58379 -0.438718 0)
(1.57896 -0.448661 0)
(1.57255 -0.453532 0)
(1.56464 -0.453751 0)
(1.55536 -0.450453 0)
(1.5448 -0.444746 0)
(1.53314 -0.437422 0)
(1.52052 -0.428971 0)
(1.50713 -0.419539 0)
(1.49323 -0.408942 0)
(1.47915 -0.396717 0)
(1.46528 -0.382211 0)
(1.45205 -0.36469 0)
(1.4399 -0.343456 0)
(1.42924 -0.317958 0)
(1.42043 -0.287871 0)
(1.41374 -0.253126 0)
(1.40942 -0.213902 0)
(1.40763 -0.170663 0)
(1.40838 -0.12412 0)
(1.41161 -0.0750025 0)
(1.41726 -0.0241168 0)
(1.42517 0.0275451 0)
(1.43504 0.0788268 0)
(1.44654 0.128861 0)
(1.45939 0.176949 0)
(1.47329 0.222475 0)
(1.48793 0.264923 0)
(1.50306 0.303882 0)
(1.51843 0.339037 0)
(1.53383 0.370161 0)
(1.54912 0.397103 0)
(1.56416 0.419779 0)
(1.57886 0.43816 0)
(1.59318 0.452243 0)
(1.60709 0.462011 0)
(1.62065 0.467289 0)
(1.63404 0.467475 0)
(1.64694 0.461867 0)
(1.65934 0.450069 0)
(1.67114 0.431846 0)
(1.68217 0.407101 0)
(1.69225 0.375902 0)
(1.70122 0.338479 0)
(1.70889 0.295243 0)
(1.71505 0.246795 0)
(1.71953 0.193917 0)
(1.72218 0.137587 0)
(1.72287 0.079088 0)
(1.72156 0.0203112 0)
(1.71825 -0.0370823 0)
(1.71298 -0.0918786 0)
(1.70585 -0.143039 0)
(1.69698 -0.189739 0)
(1.68653 -0.231384 0)
(1.67467 -0.267622 0)
(1.66159 -0.29832 0)
(1.64747 -0.323536 0)
(1.63247 -0.343471 0)
(1.61676 -0.358404 0)
(1.60046 -0.368636 0)
(1.5837 -0.374431 0)
(1.56662 -0.376026 0)
(1.54945 -0.373714 0)
(1.53231 -0.367828 0)
(1.51537 -0.358623 0)
(1.49882 -0.346272 0)
(1.48283 -0.330883 0)
(1.46757 -0.312532 0)
(1.45321 -0.291303 0)
(1.43986 -0.267322 0)
(1.42764 -0.240776 0)
(1.41661 -0.211915 0)
(1.40683 -0.181045 0)
(1.39834 -0.148513 0)
(1.39115 -0.114688 0)
(1.3853 -0.0799576 0)
(1.38079 -0.0447492 0)
(1.37763 -0.00953044 0)
(1.37582 0.0253409 0)
(1.37534 0.0595114 0)
(1.37614 0.09262 0)
(1.37817 0.124307 0)
(1.38137 0.154217 0)
(1.38565 0.18201 0)
(1.39093 0.207363 0)
(1.3971 0.229984 0)
(1.40407 0.249615 0)
(1.41174 0.266044 0)
(1.42001 0.279106 0)
(1.42878 0.288665 0)
(1.43799 0.294554 0)
(1.44774 0.296408 0)
(1.45781 0.293892 0)
(1.46818 0.286987 0)
(1.47878 0.275742 0)
(1.48954 0.260273 0)
(1.50039 0.240763 0)
(1.51128 0.21746 0)
(1.52213 0.19068 0)
(1.53289 0.160811 0)
(1.54348 0.128312 0)
(1.55383 0.0937145 0)
(1.56384 0.0576287 0)
(1.57339 0.0208104 0)
(1.58229 -0.0158711 0)
(1.59044 -0.0518152 0)
(1.59775 -0.0864846 0)
(1.6041 -0.119403 0)
(1.60942 -0.150167 0)
(1.61364 -0.178451 0)
(1.61673 -0.204023 0)
(1.61865 -0.226737 0)
(1.61942 -0.246527 0)
(1.61906 -0.263403 0)
(1.61759 -0.277431 0)
(1.6151 -0.288715 0)
(1.61164 -0.297375 0)
(1.6073 -0.303516 0)
(1.60205 -0.307167 0)
(1.59595 -0.308267 0)
(1.58921 -0.30685 0)
(1.58193 -0.302884 0)
(1.57434 -0.296218 0)
(1.56664 -0.286672 0)
(1.55904 -0.274053 0)
(1.55173 -0.258185 0)
(1.54488 -0.238935 0)
(1.59985 0.0668793 0)
(1.60922 -0.0159781 0)
(1.61712 -0.0943155 0)
(1.62333 -0.166198 0)
(1.62768 -0.230188 0)
(1.63009 -0.285401 0)
(1.63054 -0.331493 0)
(1.62909 -0.368602 0)
(1.62586 -0.397253 0)
(1.62105 -0.418241 0)
(1.61489 -0.432514 0)
(1.60744 -0.440984 0)
(1.59848 -0.444206 0)
(1.58835 -0.442888 0)
(1.5771 -0.438276 0)
(1.56486 -0.431396 0)
(1.55176 -0.423034 0)
(1.5379 -0.413706 0)
(1.52341 -0.403619 0)
(1.50849 -0.39267 0)
(1.49342 -0.380483 0)
(1.47856 -0.366462 0)
(1.46434 -0.349905 0)
(1.45118 -0.330108 0)
(1.4395 -0.306481 0)
(1.42967 -0.278632 0)
(1.42201 -0.246414 0)
(1.41673 -0.209937 0)
(1.414 -0.169565 0)
(1.41385 -0.12587 0)
(1.41628 -0.0795326 0)
(1.4212 -0.0313245 0)
(1.42848 0.0178818 0)
(1.43785 0.0670785 0)
(1.44902 0.115331 0)
(1.46171 0.161963 0)
(1.47564 0.206362 0)
(1.49053 0.247998 0)
(1.50612 0.286431 0)
(1.52216 0.321308 0)
(1.53845 0.352363 0)
(1.55481 0.379404 0)
(1.57112 0.402305 0)
(1.58727 0.420994 0)
(1.60319 0.435423 0)
(1.61883 0.445529 0)
(1.63424 0.451118 0)
(1.6495 0.451653 0)
(1.66436 0.446513 0)
(1.67874 0.435334 0)
(1.69251 0.417901 0)
(1.70546 0.394156 0)
(1.71738 0.364177 0)
(1.72805 0.328204 0)
(1.73726 0.286653 0)
(1.74477 0.240118 0)
(1.75038 0.189359 0)
(1.7539 0.135307 0)
(1.7552 0.0791865 0)
(1.75421 0.0228164 0)
(1.75096 -0.0322142 0)
(1.7455 -0.0847395 0)
(1.73798 -0.133767 0)
(1.72853 -0.178511 0)
(1.71736 -0.21841 0)
(1.70469 -0.253126 0)
(1.69072 -0.282531 0)
(1.67568 -0.306673 0)
(1.65978 -0.32573 0)
(1.64319 -0.33996 0)
(1.62608 -0.349647 0)
(1.60858 -0.355062 0)
(1.59085 -0.356459 0)
(1.57311 -0.354135 0)
(1.55548 -0.34842 0)
(1.5381 -0.339579 0)
(1.52115 -0.327793 0)
(1.50482 -0.313167 0)
(1.48927 -0.295766 0)
(1.47467 -0.275651 0)
(1.46116 -0.252918 0)
(1.44886 -0.22772 0)
(1.43784 -0.200275 0)
(1.42815 -0.170866 0)
(1.41982 -0.139822 0)
(1.41286 -0.107502 0)
(1.40728 -0.0742874 0)
(1.40308 -0.0405964 0)
(1.40023 -0.00688909 0)
(1.39874 0.0264845 0)
(1.39857 0.059187 0)
(1.39971 0.090876 0)
(1.40209 0.121207 0)
(1.40566 0.14984 0)
(1.41034 0.176447 0)
(1.41606 0.200715 0)
(1.42272 0.222359 0)
(1.43023 0.241122 0)
(1.43848 0.256792 0)
(1.44738 0.269195 0)
(1.45682 0.27818 0)
(1.46679 0.283541 0)
(1.4773 0.284906 0)
(1.48813 0.282004 0)
(1.49925 0.274815 0)
(1.51059 0.263377 0)
(1.52204 0.247797 0)
(1.53351 0.228257 0)
(1.54493 0.205003 0)
(1.55621 0.178357 0)
(1.56726 0.148711 0)
(1.57799 0.116532 0)
(1.58831 0.0823574 0)
(1.59809 0.046826 0)
(1.6072 0.0107481 0)
(1.61545 -0.0250514 0)
(1.62277 -0.0599951 0)
(1.62905 -0.0935561 0)
(1.6342 -0.125272 0)
(1.63818 -0.154762 0)
(1.64094 -0.181728 0)
(1.64247 -0.205964 0)
(1.64277 -0.227348 0)
(1.64189 -0.24584 0)
(1.63987 -0.261468 0)
(1.63677 -0.27431 0)
(1.63267 -0.284479 0)
(1.62761 -0.29209 0)
(1.62161 -0.29722 0)
(1.61468 -0.299886 0)
(1.60701 -0.30015 0)
(1.5987 -0.298102 0)
(1.58994 -0.293703 0)
(1.58092 -0.286834 0)
(1.57184 -0.277319 0)
(1.56291 -0.264955 0)
(1.55434 -0.249545 0)
(1.5463 -0.230935 0)
(1.65306 0.0559116 0)
(1.66172 -0.0251004 0)
(1.66829 -0.101353 0)
(1.67265 -0.170985 0)
(1.67474 -0.232649 0)
(1.67461 -0.285548 0)
(1.67235 -0.32941 0)
(1.66814 -0.364437 0)
(1.66217 -0.391211 0)
(1.65469 -0.410558 0)
(1.64592 -0.423383 0)
(1.63585 -0.430434 0)
(1.62452 -0.432229 0)
(1.61229 -0.429739 0)
(1.59922 -0.424133 0)
(1.58545 -0.416374 0)
(1.57107 -0.407226 0)
(1.55614 -0.397215 0)
(1.54073 -0.386599 0)
(1.52499 -0.375359 0)
(1.50912 -0.363211 0)
(1.49344 -0.34965 0)
(1.47834 -0.334025 0)
(1.46426 -0.315645 0)
(1.45162 -0.293886 0)
(1.44082 -0.268291 0)
(1.43219 -0.238631 0)
(1.42596 -0.204928 0)
(1.42231 -0.167451 0)
(1.42128 -0.126675 0)
(1.42288 -0.0832114 0)
(1.42704 -0.0377675 0)
(1.43363 0.00887301 0)
(1.44245 0.0558284 0)
(1.45318 0.102143 0)
(1.46558 0.147128 0)
(1.4794 0.190184 0)
(1.49436 0.230778 0)
(1.51022 0.26845 0)
(1.52674 0.302818 0)
(1.54371 0.333579 0)
(1.56094 0.360504 0)
(1.5783 0.383429 0)
(1.59567 0.40224 0)
(1.61297 0.416852 0)
(1.63012 0.427167 0)
(1.64714 0.432974 0)
(1.66407 0.433792 0)
(1.68064 0.429078 0)
(1.69676 0.41851 0)
(1.71224 0.401918 0)
(1.72685 0.379251 0)
(1.74035 0.350602 0)
(1.75251 0.316223 0)
(1.76307 0.276537 0)
(1.77177 0.232129 0)
(1.77837 0.183732 0)
(1.78268 0.13223 0)
(1.78454 0.0787735 0)
(1.78388 0.0250938 0)
(1.78073 -0.0273095 0)
(1.77517 -0.0773282 0)
(1.76736 -0.124022 0)
(1.75749 -0.166649 0)
(1.74577 -0.204677 0)
(1.73247 -0.237784 0)
(1.71782 -0.265843 0)
(1.70208 -0.28889 0)
(1.68548 -0.307084 0)
(1.66822 -0.320659 0)
(1.65049 -0.329881 0)
(1.63245 -0.335016 0)
(1.61426 -0.336322 0)
(1.59614 -0.334084 0)
(1.5782 -0.328617 0)
(1.56057 -0.320194 0)
(1.54342 -0.30901 0)
(1.52691 -0.295181 0)
(1.51122 -0.278771 0)
(1.49652 -0.259829 0)
(1.48295 -0.238418 0)
(1.47066 -0.214656 0)
(1.45972 -0.188723 0)
(1.4502 -0.160869 0)
(1.44212 -0.131398 0)
(1.43548 -0.100653 0)
(1.43028 -0.069005 0)
(1.42649 -0.0368609 0)
(1.4241 -0.00467732 0)
(1.42306 0.0271924 0)
(1.42335 0.05842 0)
(1.42495 0.0886763 0)
(1.42781 0.117634 0)
(1.43187 0.144965 0)
(1.43706 0.170352 0)
(1.44332 0.193495 0)
(1.45054 0.214113 0)
(1.45865 0.231961 0)
(1.46755 0.246825 0)
(1.47713 0.258524 0)
(1.48728 0.266889 0)
(1.49801 0.27168 0)
(1.50927 0.272542 0)
(1.52086 0.269266 0)
(1.53272 0.26182 0)
(1.54476 0.250234 0)
(1.55684 0.234613 0)
(1.56886 0.215136 0)
(1.58072 0.192054 0)
(1.59232 0.165689 0)
(1.60354 0.136438 0)
(1.61426 0.104773 0)
(1.62438 0.0712394 0)
(1.63377 0.0364889 0)
(1.64224 0.00139971 0)
(1.64965 -0.0332903 0)
(1.65593 -0.0670169 0)
(1.66099 -0.0992727 0)
(1.66478 -0.12962 0)
(1.66727 -0.157702 0)
(1.66846 -0.18325 0)
(1.66836 -0.206081 0)
(1.667 -0.226098 0)
(1.66445 -0.243279 0)
(1.66077 -0.257668 0)
(1.65602 -0.269349 0)
(1.65029 -0.278422 0)
(1.6436 -0.284981 0)
(1.63595 -0.289087 0)
(1.62747 -0.290821 0)
(1.61828 -0.290342 0)
(1.60852 -0.287727 0)
(1.59836 -0.282958 0)
(1.588 -0.275941 0)
(1.57763 -0.266509 0)
(1.56747 -0.254458 0)
(1.55772 -0.23958 0)
(1.54857 -0.221699 0)
(1.70538 0.0455054 0)
(1.71309 -0.0329418 0)
(1.71815 -0.106495 0)
(1.72055 -0.173388 0)
(1.72034 -0.232368 0)
(1.71768 -0.282722 0)
(1.71276 -0.324252 0)
(1.70586 -0.357208 0)
(1.69724 -0.38218 0)
(1.68722 -0.39997 0)
(1.67596 -0.411416 0)
(1.66346 -0.41716 0)
(1.65001 -0.417835 0)
(1.63589 -0.414501 0)
(1.6212 -0.40822 0)
(1.60609 -0.399887 0)
(1.59063 -0.390219 0)
(1.57482 -0.379735 0)
(1.55871 -0.368731 0)
(1.54235 -0.357265 0)
(1.5259 -0.345156 0)
(1.50961 -0.332001 0)
(1.49383 -0.317227 0)
(1.47897 -0.300182 0)
(1.46546 -0.280233 0)
(1.45373 -0.256868 0)
(1.44414 -0.229772 0)
(1.43695 -0.198869 0)
(1.43235 -0.164325 0)
(1.43042 -0.126517 0)
(1.43117 -0.0859822 0)
(1.43452 -0.0433681 0)
(1.44037 0.00061133 0)
(1.44854 0.0451784 0)
(1.45875 0.0894207 0)
(1.47075 0.132596 0)
(1.4843 0.174122 0)
(1.49917 0.213466 0)
(1.51512 0.25016 0)
(1.53191 0.283798 0)
(1.54933 0.31405 0)
(1.56721 0.340652 0)
(1.5854 0.363405 0)
(1.60375 0.38216 0)
(1.62218 0.3968 0)
(1.64059 0.407197 0)
(1.65896 0.413131 0)
(1.67729 0.414174 0)
(1.69531 0.409857 0)
(1.71287 0.399912 0)
(1.72978 0.384189 0)
(1.74578 0.362657 0)
(1.76061 0.335427 0)
(1.77401 0.302765 0)
(1.78569 0.265097 0)
(1.79538 0.222995 0)
(1.80283 0.17716 0)
(1.80782 0.128426 0)
(1.81019 0.0778676 0)
(1.80986 0.0271113 0)
(1.80685 -0.0224457 0)
(1.80129 -0.0697633 0)
(1.79333 -0.113959 0)
(1.78319 -0.154335 0)
(1.77112 -0.190393 0)
(1.75739 -0.221826 0)
(1.74229 -0.248506 0)
(1.72608 -0.270455 0)
(1.70903 -0.287809 0)
(1.69134 -0.300774 0)
(1.67325 -0.309596 0)
(1.65491 -0.314528 0)
(1.6365 -0.31582 0)
(1.6182 -0.31374 0)
(1.60015 -0.308587 0)
(1.58245 -0.300638 0)
(1.56525 -0.290101 0)
(1.54871 -0.277107 0)
(1.53301 -0.261726 0)
(1.51832 -0.243996 0)
(1.5048 -0.223962 0)
(1.4926 -0.201705 0)
(1.48182 -0.177365 0)
(1.47254 -0.151153 0)
(1.46477 -0.123341 0)
(1.45854 -0.0942499 0)
(1.45381 -0.0642334 0)
(1.45055 -0.0336799 0)
(1.44872 -0.0030424 0)
(1.44826 0.0273125 0)
(1.44915 0.0570603 0)
(1.45134 0.08588 0)
(1.4548 0.113455 0)
(1.45946 0.13947 0)
(1.46526 0.16362 0)
(1.47214 0.185613 0)
(1.48001 0.205179 0)
(1.48877 0.222076 0)
(1.49835 0.236096 0)
(1.50863 0.247054 0)
(1.51953 0.254764 0)
(1.53102 0.258966 0)
(1.543 0.259334 0)
(1.5553 0.255708 0)
(1.56785 0.248049 0)
(1.5805 0.236384 0)
(1.59312 0.220815 0)
(1.6056 0.201519 0)
(1.61779 0.178746 0)
(1.62958 0.152825 0)
(1.64083 0.124157 0)
(1.6514 0.0932134 0)
(1.66115 0.0605477 0)
(1.66994 0.0268463 0)
(1.67759 -0.0070151 0)
(1.68399 -0.0403722 0)
(1.68907 -0.0726806 0)
(1.69278 -0.103459 0)
(1.6951 -0.132299 0)
(1.69601 -0.158872 0)
(1.69555 -0.182935 0)
(1.69377 -0.204328 0)
(1.69073 -0.22297 0)
(1.68651 -0.238853 0)
(1.68117 -0.252023 0)
(1.67481 -0.262562 0)
(1.66748 -0.270553 0)
(1.65919 -0.276065 0)
(1.65 -0.279186 0)
(1.64005 -0.280081 0)
(1.62945 -0.278924 0)
(1.61835 -0.275803 0)
(1.6069 -0.270726 0)
(1.5953 -0.263619 0)
(1.58374 -0.25433 0)
(1.57244 -0.242656 0)
(1.56161 -0.228382 0)
(1.55146 -0.211315 0)
(1.75468 0.0359144 0)
(1.76132 -0.0393375 0)
(1.76484 -0.109665 0)
(1.76531 -0.173411 0)
(1.7629 -0.229422 0)
(1.75786 -0.277062 0)
(1.75049 -0.316187 0)
(1.74113 -0.347076 0)
(1.7301 -0.370317 0)
(1.71773 -0.386658 0)
(1.70419 -0.39684 0)
(1.68958 -0.401481 0)
(1.67431 -0.401333 0)
(1.65858 -0.397439 0)
(1.64255 -0.390769 0)
(1.62636 -0.382139 0)
(1.61004 -0.372206 0)
(1.59359 -0.361462 0)
(1.57699 -0.350224 0)
(1.56024 -0.338617 0)
(1.54344 -0.326553 0)
(1.52677 -0.31374 0)
(1.51051 -0.29971 0)
(1.49504 -0.283877 0)
(1.4808 -0.265626 0)
(1.46821 -0.244409 0)
(1.45768 -0.219835 0)
(1.44951 -0.191726 0)
(1.44393 -0.160138 0)
(1.44104 -0.125343 0)
(1.44087 -0.0877943 0)
(1.44336 -0.0480694 0)
(1.44841 -0.0068292 0)
(1.45585 0.0352177 0)
(1.46546 0.0772722 0)
(1.47695 0.118504 0)
(1.49011 0.158343 0)
(1.50472 0.19626 0)
(1.52056 0.231779 0)
(1.53742 0.264485 0)
(1.55508 0.294023 0)
(1.57337 0.320105 0)
(1.59213 0.342501 0)
(1.61121 0.361033 0)
(1.6305 0.375554 0)
(1.6499 0.385914 0)
(1.66933 0.391893 0)
(1.68877 0.393114 0)
(1.70793 0.389186 0)
(1.72663 0.379876 0)
(1.74466 0.365055 0)
(1.76175 0.344716 0)
(1.77762 0.318986 0)
(1.79199 0.288142 0)
(1.80456 0.252607 0)
(1.81504 0.21294 0)
(1.82319 0.169812 0)
(1.82876 0.124002 0)
(1.83159 0.0765115 0)
(1.83158 0.0288517 0)
(1.82878 -0.0176998 0)
(1.82329 -0.0621753 0)
(1.81533 -0.103752 0)
(1.8051 -0.141781 0)
(1.79288 -0.175797 0)
(1.77897 -0.205508 0)
(1.76366 -0.230788 0)
(1.74724 -0.251643 0)
(1.72999 -0.268184 0)
(1.71215 -0.280591 0)
(1.69394 -0.289081 0)
(1.67556 -0.293885 0)
(1.65717 -0.295234 0)
(1.63894 -0.293369 0)
(1.62099 -0.288572 0)
(1.60342 -0.281121 0)
(1.58636 -0.271242 0)
(1.56996 -0.259086 0)
(1.55439 -0.244738 0)
(1.53983 -0.228239 0)
(1.52644 -0.209619 0)
(1.51441 -0.188924 0)
(1.50384 -0.166254 0)
(1.49483 -0.141775 0)
(1.48742 -0.115718 0)
(1.48163 -0.0883729 0)
(1.47742 -0.0600674 0)
(1.47477 -0.0311686 0)
(1.4736 -0.00211388 0)
(1.47383 0.0267053 0)
(1.47542 0.0549639 0)
(1.47832 0.0823442 0)
(1.48248 0.108535 0)
(1.48784 0.133233 0)
(1.49435 0.15614 0)
(1.50192 0.176976 0)
(1.51048 0.195478 0)
(1.51994 0.211412 0)
(1.53022 0.22457 0)
(1.54121 0.234769 0)
(1.55282 0.241813 0)
(1.56504 0.245436 0)
(1.5777 0.245349 0)
(1.59065 0.241421 0)
(1.6038 0.233609 0)
(1.61699 0.221937 0)
(1.63006 0.206511 0)
(1.64288 0.187513 0)
(1.65529 0.165201 0)
(1.66712 0.139908 0)
(1.67822 0.112035 0)
(1.68843 0.082052 0)
(1.69762 0.0505029 0)
(1.70563 0.0180961 0)
(1.7123 -0.0143144 0)
(1.71754 -0.0461362 0)
(1.72131 -0.0768505 0)
(1.72357 -0.106006 0)
(1.72434 -0.133224 0)
(1.72364 -0.158208 0)
(1.72153 -0.18074 0)
(1.71807 -0.20068 0)
(1.71337 -0.21796 0)
(1.70751 -0.232576 0)
(1.70058 -0.244566 0)
(1.69266 -0.253995 0)
(1.68378 -0.260927 0)
(1.67398 -0.265437 0)
(1.66338 -0.267657 0)
(1.65208 -0.267799 0)
(1.64019 -0.266033 0)
(1.62785 -0.262469 0)
(1.61523 -0.257144 0)
(1.6025 -0.250005 0)
(1.58988 -0.240916 0)
(1.57756 -0.22968 0)
(1.56578 -0.216076 0)
(1.55472 -0.199898 0)
(1.79914 0.0272453 0)
(1.80469 -0.0442717 0)
(1.80674 -0.110936 0)
(1.80545 -0.171208 0)
(1.80107 -0.224032 0)
(1.79395 -0.268842 0)
(1.78445 -0.305532 0)
(1.77297 -0.334384 0)
(1.75987 -0.355953 0)
(1.74549 -0.370928 0)
(1.73002 -0.379982 0)
(1.71368 -0.383762 0)
(1.69689 -0.383081 0)
(1.67988 -0.378915 0)
(1.6628 -0.372137 0)
(1.64579 -0.363479 0)
(1.62887 -0.353525 0)
(1.61203 -0.342722 0)
(1.5952 -0.331384 0)
(1.57834 -0.319694 0)
(1.56145 -0.307666 0)
(1.54464 -0.295122 0)
(1.52815 -0.281701 0)
(1.51229 -0.266911 0)
(1.49748 -0.250187 0)
(1.48414 -0.230976 0)
(1.47271 -0.208828 0)
(1.46355 -0.183467 0)
(1.45693 -0.154834 0)
(1.45301 -0.123087 0)
(1.45184 -0.088579 0)
(1.45338 -0.0518087 0)
(1.45755 -0.013375 0)
(1.46418 0.0260679 0)
(1.47307 0.0657976 0)
(1.48394 0.104989 0)
(1.49657 0.143013 0)
(1.51077 0.179352 0)
(1.52633 0.213533 0)
(1.54304 0.245132 0)
(1.56071 0.273778 0)
(1.57917 0.29916 0)
(1.59824 0.321027 0)
(1.61777 0.339177 0)
(1.63765 0.353441 0)
(1.65774 0.363654 0)
(1.67794 0.369604 0)
(1.69817 0.370972 0)
(1.71816 0.36742 0)
(1.73769 0.358743 0)
(1.75654 0.344839 0)
(1.77443 0.325724 0)
(1.79106 0.301544 0)
(1.80614 0.272583 0)
(1.81935 0.239262 0)
(1.83042 0.202123 0)
(1.83908 0.161798 0)
(1.84512 0.119019 0)
(1.84836 0.0747158 0)
(1.84867 0.0302749 0)
(1.84611 -0.0131609 0)
(1.84081 -0.0547018 0)
(1.83298 -0.0935839 0)
(1.82284 -0.129207 0)
(1.81069 -0.161138 0)
(1.79683 -0.189105 0)
(1.78156 -0.212979 0)
(1.7652 -0.232754 0)
(1.74803 -0.248514 0)
(1.73031 -0.260411 0)
(1.71228 -0.26863 0)
(1.69412 -0.273369 0)
(1.676 -0.274827 0)
(1.65805 -0.273216 0)
(1.64042 -0.268803 0)
(1.62317 -0.261863 0)
(1.60643 -0.252639 0)
(1.59034 -0.241307 0)
(1.57504 -0.227975 0)
(1.56072 -0.212697 0)
(1.54758 -0.195494 0)
(1.53578 -0.176389 0)
(1.52547 -0.155441 0)
(1.51677 -0.132768 0)
(1.50974 -0.108556 0)
(1.5044 -0.0830532 0)
(1.50074 -0.0565574 0)
(1.49872 -0.0294035 0)
(1.49826 -0.00198374 0)
(1.49925 0.0252701 0)
(1.50162 0.0520285 0)
(1.50531 0.0779714 0)
(1.51025 0.102789 0)
(1.51638 0.126182 0)
(1.52364 0.147859 0)
(1.53196 0.167547 0)
(1.54125 0.184993 0)
(1.55143 0.199969 0)
(1.56242 0.212269 0)
(1.57411 0.221707 0)
(1.58643 0.228081 0)
(1.59933 0.231141 0)
(1.61262 0.230637 0)
(1.62616 0.226455 0)
(1.63981 0.218556 0)
(1.6534 0.206976 0)
(1.66677 0.191824 0)
(1.67973 0.173288 0)
(1.69213 0.151626 0)
(1.70379 0.127169 0)
(1.71453 0.100311 0)
(1.72421 0.0715076 0)
(1.73267 0.0413051 0)
(1.73975 0.0104297 0)
(1.74531 -0.0203385 0)
(1.7493 -0.0504538 0)
(1.75168 -0.0794302 0)
(1.75246 -0.10685 0)
(1.75168 -0.132368 0)
(1.74938 -0.155715 0)
(1.74566 -0.176698 0)
(1.7406 -0.195193 0)
(1.73432 -0.211139 0)
(1.72691 -0.224527 0)
(1.71848 -0.23538 0)
(1.70909 -0.24374 0)
(1.69878 -0.249661 0)
(1.68762 -0.253237 0)
(1.67574 -0.254649 0)
(1.66321 -0.254108 0)
(1.65016 -0.251797 0)
(1.63671 -0.247853 0)
(1.62303 -0.242338 0)
(1.6093 -0.235227 0)
(1.59573 -0.2264 0)
(1.58253 -0.215669 0)
(1.56991 -0.202808 0)
(1.5581 -0.187596 0)
(1.83731 0.019533 0)
(1.84185 -0.0478305 0)
(1.8426 -0.110504 0)
(1.83982 -0.167068 0)
(1.83382 -0.216557 0)
(1.825 -0.258466 0)
(1.81378 -0.292713 0)
(1.8006 -0.319565 0)
(1.78586 -0.339529 0)
(1.76987 -0.353227 0)
(1.75291 -0.361302 0)
(1.73528 -0.36444 0)
(1.71738 -0.363465 0)
(1.69946 -0.359261 0)
(1.68167 -0.352609 0)
(1.66413 -0.344153 0)
(1.64687 -0.334404 0)
(1.62986 -0.323752 0)
(1.61302 -0.312492 0)
(1.59628 -0.30082 0)
(1.57959 -0.288824 0)
(1.56296 -0.276452 0)
(1.54652 -0.263482 0)
(1.53054 -0.249525 0)
(1.51537 -0.234095 0)
(1.50145 -0.21667 0)
(1.48921 -0.196772 0)
(1.47907 -0.174048 0)
(1.47135 -0.148324 0)
(1.46629 -0.119634 0)
(1.46399 -0.0882132 0)
(1.46447 -0.0544649 0)
(1.46762 -0.0189147 0)
(1.47332 0.0178355 0)
(1.48137 0.0551213 0)
(1.49152 0.0921798 0)
(1.5035 0.128287 0)
(1.51713 0.162927 0)
(1.53222 0.195625 0)
(1.54858 0.225956 0)
(1.56604 0.253544 0)
(1.58441 0.278065 0)
(1.60353 0.29925 0)
(1.62324 0.316878 0)
(1.64341 0.330765 0)
(1.66388 0.340741 0)
(1.68452 0.34661 0)
(1.70523 0.348093 0)
(1.72573 0.344899 0)
(1.74578 0.336855 0)
(1.76515 0.32389 0)
(1.78354 0.306044 0)
(1.80064 0.283473 0)
(1.81615 0.25646 0)
(1.82977 0.225416 0)
(1.84122 0.190853 0)
(1.85026 0.153359 0)
(1.85668 0.113615 0)
(1.86029 0.0725307 0)
(1.86094 0.031372 0)
(1.85866 -0.00889899 0)
(1.85363 -0.0474757 0)
(1.84606 -0.0836351 0)
(1.8362 -0.116831 0)
(1.82433 -0.146671 0)
(1.81076 -0.172897 0)
(1.7958 -0.19538 0)
(1.77977 -0.2141 0)
(1.76297 -0.229118 0)
(1.74566 -0.240551 0)
(1.72806 -0.248547 0)
(1.71039 -0.253266 0)
(1.69277 -0.254865 0)
(1.67534 -0.253528 0)
(1.65822 -0.249502 0)
(1.64148 -0.243065 0)
(1.62522 -0.234473 0)
(1.60958 -0.223931 0)
(1.59469 -0.211577 0)
(1.58074 -0.197486 0)
(1.56792 -0.181681 0)
(1.55644 -0.164167 0)
(1.54644 -0.144967 0)
(1.53807 -0.124153 0)
(1.53142 -0.101861 0)
(1.52652 -0.0782924 0)
(1.52338 -0.0537043 0)
(1.52197 -0.0283961 0)
(1.52222 -0.00270916 0)
(1.52401 0.0229368 0)
(1.52721 0.0481711 0)
(1.53175 0.07267 0)
(1.53754 0.0961206 0)
(1.54451 0.118223 0)
(1.55259 0.13869 0)
(1.56169 0.157252 0)
(1.57174 0.173661 0)
(1.58265 0.187694 0)
(1.59434 0.199149 0)
(1.6067 0.207841 0)
(1.61966 0.213581 0)
(1.63313 0.216139 0)
(1.6469 0.215301 0)
(1.66085 0.210966 0)
(1.67481 0.203103 0)
(1.6886 0.191752 0)
(1.70204 0.177026 0)
(1.71495 0.159112 0)
(1.72715 0.13827 0)
(1.73846 0.11483 0)
(1.74868 0.0891788 0)
(1.75767 0.0617613 0)
(1.76526 0.0331088 0)
(1.77128 0.0039642 0)
(1.77565 -0.0249959 0)
(1.77833 -0.0532643 0)
(1.77931 -0.0803925 0)
(1.77863 -0.105998 0)
(1.77634 -0.129769 0)
(1.77252 -0.151462 0)
(1.76729 -0.170904 0)
(1.76075 -0.187982 0)
(1.75302 -0.202633 0)
(1.74422 -0.214838 0)
(1.73442 -0.2246 0)
(1.72371 -0.23194 0)
(1.71211 -0.23691 0)
(1.69975 -0.239632 0)
(1.68672 -0.24031 0)
(1.6731 -0.239153 0)
(1.65901 -0.236361 0)
(1.64459 -0.232097 0)
(1.62998 -0.226454 0)
(1.61538 -0.219431 0)
(1.60099 -0.21093 0)
(1.58703 -0.20077 0)
(1.57373 -0.188722 0)
(1.56128 -0.174552 0)
(1.8682 0.0127242 0)
(1.87188 -0.0502064 0)
(1.87163 -0.108679 0)
(1.86771 -0.161391 0)
(1.8605 -0.207459 0)
(1.85044 -0.246428 0)
(1.83797 -0.278232 0)
(1.82355 -0.303117 0)
(1.8076 -0.321539 0)
(1.79048 -0.334063 0)
(1.77251 -0.341315 0)
(1.75403 -0.34401 0)
(1.73545 -0.342948 0)
(1.717 -0.338911 0)
(1.69885 -0.332581 0)
(1.6811 -0.324515 0)
(1.66378 -0.315148 0)
(1.64684 -0.304817 0)
(1.63021 -0.293786 0)
(1.61381 -0.282253 0)
(1.59755 -0.270343 0)
(1.58138 -0.258089 0)
(1.56533 -0.245398 0)
(1.54956 -0.232033 0)
(1.53435 -0.217609 0)
(1.52009 -0.201671 0)
(1.50721 -0.183754 0)
(1.49616 -0.16346 0)
(1.48733 -0.140518 0)
(1.48102 -0.114839 0)
(1.47744 -0.0865268 0)
(1.47665 -0.0558654 0)
(1.47861 -0.0232873 0)
(1.4832 0.0106726 0)
(1.49025 0.0454053 0)
(1.49951 0.0802171 0)
(1.51069 0.114334 0)
(1.5236 0.147189 0)
(1.53805 0.178303 0)
(1.55386 0.207249 0)
(1.57088 0.233645 0)
(1.58892 0.25716 0)
(1.60782 0.27752 0)
(1.62743 0.294496 0)
(1.64758 0.3079 0)
(1.66812 0.317559 0)
(1.6889 0.323287 0)
(1.70977 0.324841 0)
(1.73047 0.321976 0)
(1.75075 0.314554 0)
(1.77036 0.302528 0)
(1.78898 0.285954 0)
(1.80632 0.264995 0)
(1.82207 0.239932 0)
(1.83593 0.211153 0)
(1.84762 0.179142 0)
(1.8569 0.144468 0)
(1.86352 0.10777 0)
(1.86731 0.0699283 0)
(1.86826 0.0321321 0)
(1.86632 -0.0049417 0)
(1.86165 -0.0406027 0)
(1.85452 -0.0740829 0)
(1.84513 -0.104879 0)
(1.83375 -0.132653 0)
(1.8207 -0.157167 0)
(1.80631 -0.178293 0)
(1.79089 -0.195997 0)
(1.77474 -0.210313 0)
(1.75811 -0.221322 0)
(1.74122 -0.22913 0)
(1.72427 -0.23385 0)
(1.70738 -0.235599 0)
(1.69066 -0.234529 0)
(1.67423 -0.230874 0)
(1.65815 -0.224913 0)
(1.64252 -0.216914 0)
(1.62746 -0.207112 0)
(1.6131 -0.195681 0)
(1.59962 -0.182724 0)
(1.58724 -0.168277 0)
(1.57613 -0.152329 0)
(1.5665 -0.134874 0)
(1.55849 -0.11594 0)
(1.55221 -0.0956153 0)
(1.54772 -0.0740515 0)
(1.54506 -0.0514604 0)
(1.54419 -0.0281008 0)
(1.54507 -0.00426932 0)
(1.54761 0.0196897 0)
(1.55163 0.0433598 0)
(1.55702 0.0664002 0)
(1.56367 0.0884916 0)
(1.57149 0.109328 0)
(1.58038 0.128621 0)
(1.59027 0.1461 0)
(1.60106 0.161517 0)
(1.61266 0.174652 0)
(1.62499 0.185312 0)
(1.63794 0.193318 0)
(1.65142 0.198496 0)
(1.66532 0.200644 0)
(1.67944 0.199573 0)
(1.69362 0.195191 0)
(1.70771 0.187477 0)
(1.72152 0.176479 0)