/*--------------------------------*- C++ -*----------------------------------*\
| =========                 |                                                 |
| \\      /  F ield         | OpenFOAM: The Open Source CFD Toolbox           |
|  \\    /   O peration     | Version:  2206                                  |
|   \\  /    A nd           | Website:  www.openfoam.com                      |
|    \\/     M anipulation  |                                                 |
\*---------------------------------------------------------------------------*/
FoamFile
{
    version     2.0;
    format      ascii;
    arch        "LSB;label=32;scalar=64";
    class       volVectorField;
    location    "19.8999";
    object      ddtCorrDdt0(U);
}
// * * * * * * * * * * * * * * * * * * * * * * * * * * * * * * * * * * * * * //

dimensions      [0 1 -2 0 0 0 0];

internalField   nonuniform List<vector> 
3025
(
(-35.5352 29.5469 0)
(-33.7498 16.4145 0)
(-33.3725 -1.04583 0)
(-33.2517 -22.8686 0)
(-33.8545 -47.9222 0)
(-34.9198 -75.5588 0)
(-36.2229 -104.758 0)
(-37.3632 -133.871 0)
(-38.0259 -160.798 0)
(-37.9628 -183.124 0)
(-36.6882 -197.818 0)
(-33.0874 -200.498 0)
(-27.6259 -193.691 0)
(-21.0212 -179.672 0)
(-13.4778 -159.923 0)
(-5.34587 -136.215 0)
(2.96753 -110.459 0)
(11.0188 -84.3583 0)
(18.4811 -59.2133 0)
(27.2163 -35.6933 0)
(37.0246 -12.7334 0)
(45.2538 5.65062 0)
(52.4275 18.2987 0)
(57.4912 26.7157 0)
(60.3642 32.7488 0)
(61.031 38.5366 0)
(59.7033 45.774 0)
(56.7937 55.2558 0)
(52.6502 66.8564 0)
(47.4632 79.8715 0)
(41.2967 93.3391 0)
(34.1794 106.216 0)
(26.1963 117.459 0)
(17.5185 126.083 0)
(8.4788 131.094 0)
(-0.413973 131.102 0)
(-8.68652 127.401 0)
(-16.0755 120.229 0)
(-22.3317 110 0)
(-27.2515 97.3333 0)
(-30.7311 83.0194 0)
(-32.8137 67.9181 0)
(-33.6883 52.7868 0)
(-33.5449 38.0758 0)
(-33.1382 23.6979 0)
(-33.5835 8.33661 0)
(-32.8161 -8.44382 0)
(-32.2075 -25.2933 0)
(-31.4941 -41.9154 0)
(-30.7877 -58.2721 0)
(-30.2192 -74.3223 0)
(-29.6796 -89.8946 0)
(-29.0148 -104.618 0)
(-28.0861 -117.867 0)
(-26.7141 -128.645 0)
(-24.4607 -135.33 0)
(-20.7528 -135.217 0)
(-16.1066 -130.387 0)
(-10.7311 -121.212 0)
(-4.75384 -108.397 0)
(1.59793 -92.8751 0)
(8.01901 -75.7335 0)
(14.1213 -58.0265 0)
(19.924 -40.5665 0)
(26.9812 -23.4955 0)
(33.3256 -6.38305 0)
(38.6366 7.7306 0)
(42.5935 19.0478 0)
(44.693 28.2545 0)
(45.0276 36.0606 0)
(43.8506 43.2963 0)
(41.4987 50.6329 0)
(38.2562 58.384 0)
(34.299 66.5243 0)
(29.7169 74.782 0)
(24.56 82.7036 0)
(18.8809 89.6977 0)
(12.7892 95.0494 0)
(6.45972 97.7803 0)
(0.202263 97.1591 0)
(-5.68079 93.9289 0)
(-10.9979 88.1556 0)
(-15.5584 80.1143 0)
(-19.2137 70.2653 0)
(-21.8925 59.1853 0)
(-23.6003 47.4838 0)
(-24.4325 35.7039 0)
(-24.7342 24.0909 0)
(-25.5796 12.0299 0)
(-26.065 -1.45253 0)
(-26.0036 -15.1864 0)
(-25.7404 -28.6065 0)
(-25.1362 -41.4007 0)
(-24.4336 -53.4508 0)
(-23.7027 -64.6993 0)
(-22.9154 -75.0567 0)
(-22.0297 -84.3293 0)
(-20.9609 -92.0823 0)
(-19.4322 -97.3873 0)
(-16.8922 -98.4812 0)
(-13.4929 -95.9713 0)
(-9.49743 -90.4629 0)
(-4.98183 -82.32 0)
(-0.10765 -72.0946 0)
(4.881 -60.4826 0)
(9.68839 -48.2009 0)
(14.1227 -35.8905 0)
(18.7068 -23.8052 0)
(23.8306 -11.3941 0)
(27.8188 0.241327 0)
(31.0946 10.0949 0)
(33.0202 18.5904 0)
(33.54 25.9708 0)
(32.8271 32.5849 0)
(31.1268 38.8228 0)
(28.6788 44.9391 0)
(25.6591 50.9948 0)
(22.1871 56.8946 0)
(18.3409 62.4185 0)
(14.1762 67.2402 0)
(9.75655 70.9006 0)
(-25.3843 25.8443 0)
(-21.7115 14.7593 0)
(-20.4442 -1.89692 0)
(-19.4419 -23.1334 0)
(-19.4739 -47.2636 0)
(-20.5283 -74.271 0)
(-22.2798 -103.248 0)
(-24.2762 -132.479 0)
(-26.2052 -159.832 0)
(-27.8344 -182.868 0)
(-28.7732 -198.798 0)
(-27.9573 -203.723 0)
(-25.2862 -198.249 0)
(-21.3458 -185.464 0)
(-16.192 -166.652 0)
(-10.0812 -143.516 0)
(-3.38327 -117.963 0)
(3.55566 -91.8249 0)
(10.2235 -66.6057 0)
(16.7646 -43.4368 0)
(25.8505 -22.2279 0)
(33.7555 -2.25388 0)
(41.2065 12.0437 0)
(46.9548 22.3439 0)
(50.5903 30.5529 0)
(52.1122 38.437 0)
(51.689 47.4426 0)
(49.6808 58.333 0)
(46.3918 71.1023 0)
(41.9774 85.1723 0)
(36.4905 99.6425 0)
(30.0037 113.458 0)
(22.6269 125.492 0)
(14.5618 134.659 0)
(6.19801 139.788 0)
(-1.90832 139.324 0)
(-9.32745 134.869 0)
(-15.8156 126.663 0)
(-21.1428 115.175 0)
(-25.1218 101.096 0)
(-27.6624 85.3336 0)
(-28.8107 68.9021 0)
(-28.7371 52.7009 0)
(-27.6092 37.367 0)
(-26.0909 23.018 0)
(-25.9494 7.92064 0)
(-24.4666 -9.23221 0)
(-23.217 -26.3301 0)
(-22.1213 -42.81 0)
(-21.3296 -58.8944 0)
(-20.9339 -74.744 0)
(-20.8108 -90.251 0)
(-20.7907 -105.063 0)
(-20.7121 -118.577 0)
(-20.4045 -129.861 0)
(-19.5655 -137.409 0)
(-17.5749 -138.631 0)
(-14.5785 -134.535 0)
(-10.8718 -126.066 0)
(-6.49223 -113.796 0)
(-1.58657 -98.5788 0)
(3.61305 -81.4818 0)
(8.80974 -63.6312 0)
(13.5678 -45.9791 0)
(18.4939 -29.2438 0)
(24.8908 -12.6133 0)
(29.8186 3.02661 0)
(34.1712 15.7576 0)
(36.9132 26.6462 0)
(37.8702 36.073 0)
(37.3582 44.6542 0)
(35.695 53.0587 0)
(33.1033 61.6556 0)
(29.7437 70.4985 0)
(25.7237 79.3723 0)
(21.1218 87.8426 0)
(16.0157 95.3011 0)
(10.5257 100.978 0)
(4.85221 103.79 0)
(-0.690419 102.913 0)
(-5.83081 99.2149 0)
(-10.3971 92.7744 0)
(-14.2261 83.9001 0)
(-17.1762 73.0933 0)
(-19.1381 61.0124 0)
(-20.1562 48.4083 0)
(-20.2698 35.9656 0)
(-19.7042 24.1404 0)
(-19.8489 12.3927 0)
(-20.1175 -1.21257 0)
(-19.5984 -15.5058 0)
(-18.9985 -29.2343 0)
(-18.2405 -42.0873 0)
(-17.6042 -54.1023 0)
(-17.1266 -65.3154 0)
(-16.7415 -75.6803 0)
(-16.3888 -85.0341 0)
(-15.9794 -93.0025 0)
(-15.3152 -98.8265 0)
(-13.9359 -100.934 0)
(-11.7393 -99.0147 0)
(-8.98687 -94.0946 0)
(-5.69426 -86.4243 0)
(-1.96185 -76.4871 0)
(2.02512 -64.9407 0)
(6.04395 -52.5197 0)
(9.77603 -39.9006 0)
(13.1532 -27.6946 0)
(17.261 -15.8874 0)
(21.1994 -3.55227 0)
(24.4725 7.39228 0)
(26.9007 17.0852 0)
(27.9371 25.7372 0)
(27.7351 33.4539 0)
(26.5736 40.5791 0)
(24.6542 47.3917 0)
(22.1294 53.9886 0)
(19.1285 60.3188 0)
(15.7465 66.1946 0)
(12.0557 71.3014 0)
(8.13435 75.1585 0)
(-15.4174 20.0662 0)
(-10.4024 10.502 0)
(-7.50059 -1.1753 0)
(-5.11214 -24.6539 0)
(-4.96861 -46.9774 0)
(-6.27616 -72.7761 0)
(-8.46759 -101.114 0)
(-11.2241 -130.092 0)
(-14.3081 -157.444 0)
(-17.4873 -180.756 0)
(-20.3972 -197.484 0)
(-22.1088 -204.181 0)
(-22.1345 -200.058 0)
(-20.8492 -188.663 0)
(-18.2112 -171.076 0)
(-14.3236 -148.89 0)
(-9.45085 -123.971 0)
(-3.86779 -98.1564 0)
(2.081 -73.0881 0)
(7.79304 -49.9779 0)
(14.1635 -29.7227 0)
(22.8049 -10.7244 0)
(29.7883 5.50735 0)
(36.0961 17.3827 0)
(40.4009 27.5799 0)
(42.5343 37.4788 0)
(42.8107 48.2118 0)
(41.5876 60.5392 0)
(39.0825 74.5437 0)
(35.3895 89.743 0)
(30.5643 105.268 0)
(24.7637 120.038 0)
(18.0903 132.848 0)
(10.7837 142.512 0)
(3.29623 147.618 0)
(-3.78585 146.628 0)
(-10.1187 141.352 0)
(-15.4735 132.083 0)
(-19.6389 119.331 0)
(-22.4967 103.872 0)
(-24.0271 86.7089 0)
(-24.2738 68.9726 0)
(-23.3375 51.6942 0)
(-21.2373 35.6802 0)
(-18.5892 21.4054 0)
(-17.944 6.99491 0)
(-15.8022 -10.7405 0)
(-13.8335 -27.8446 0)
(-12.3392 -43.9285 0)
(-11.5411 -59.4906 0)
(-11.3987 -74.8711 0)
(-11.7228 -90.0686 0)
(-12.3497 -104.757 0)
(-13.121 -118.323 0)
(-13.8809 -129.855 0)
(-14.3713 -137.993 0)
(-14.0126 -140.37 0)
(-12.6878 -136.995 0)
(-10.6521 -129.269 0)
(-7.88005 -117.646 0)
(-4.45049 -102.912 0)
(-0.531161 -86.0897 0)
(3.66783 -68.2878 0)
(7.77799 -50.5219 0)
(11.317 -33.6512 0)
(15.9025 -18.1968 0)
(20.9421 -1.99189 0)
(25.2824 12.0432 0)
(28.6375 24.6772 0)
(30.0824 35.6622 0)
(30.106 45.4685 0)
(29.0553 54.8852 0)
(27.0746 64.327 0)
(24.3078 73.8871 0)
(20.8755 83.3811 0)
(16.8807 92.3815 0)
(12.4231 100.266 0)
(7.63715 106.217 0)
(2.75768 109.026 0)
(-1.89343 107.845 0)
(-6.10087 103.662 0)
(-9.73468 96.578 0)
(-12.6735 86.9112 0)
(-14.7972 75.1947 0)
(-16.052 62.1629 0)
(-16.4144 48.6383 0)
(-15.8655 35.4744 0)
(-14.4358 23.4003 0)
(-13.7149 12.1775 0)
(-13.8941 -1.33996 0)
(-12.9406 -16.2308 0)
(-11.8411 -30.0962 0)
(-10.9338 -42.8074 0)
(-10.4263 -54.5882 0)
(-10.2732 -65.5805 0)
(-10.3632 -75.8089 0)
(-10.5859 -85.1275 0)
(-10.8409 -93.1938 0)
(-10.995 -99.3362 0)
(-10.6836 -102.192 0)
(-9.67683 -100.846 0)
(-8.13889 -96.4935 0)
(-6.06121 -89.3288 0)
(-3.4881 -79.777 0)
(-0.545032 -68.4448 0)
(2.6006 -56.053 0)
(5.71378 -43.3056 0)
(8.38407 -30.7991 0)
(10.8146 -19.135 0)
(14.5743 -7.54298 0)
(17.534 4.33284 0)
(20.334 15.2369 0)
(21.8463 25.1845 0)
(22.0687 33.9504 0)
(21.3901 41.9049 0)
(19.9715 49.3874 0)
(17.9397 56.5152 0)
(15.4338 63.267 0)
(12.5583 69.4765 0)
(9.39902 74.837 0)
(6.0479 78.8499 0)
(-5.39305 14.7232 0)
(0.0842505 6.83181 0)
(6.2216 -7.00129 0)
(9.05635 -25.4236 0)
(8.90649 -46.0395 0)
(7.46384 -70.8752 0)
(4.88706 -98.389 0)
(1.40796 -126.758 0)
(-2.74323 -153.727 0)
(-7.34931 -176.959 0)
(-12.056 -194.058 0)
(-16.0526 -202.088 0)
(-18.6011 -199.294 0)
(-19.811 -189.312 0)
(-19.5709 -173.133 0)
(-17.8762 -152.221 0)
(-14.8697 -128.335 0)
(-10.7294 -103.277 0)
(-5.7238 -78.6798 0)
(-0.400562 -55.8233 0)
(4.83655 -35.5518 0)
(11.3105 -18.609 0)
(18.4399 -1.7732 0)
(24.7064 11.8322 0)
(29.6919 24.1837 0)
(32.3183 36.0839 0)
(33.1684 48.3956 0)
(32.6466 62.0591 0)
(30.8208 77.2907 0)
(27.751 93.6407 0)
(23.6061 110.231 0)
(18.5224 125.885 0)
(12.6556 139.408 0)
(6.26659 149.467 0)
(-0.138644 154.375 0)
(-5.98248 152.769 0)
(-11.0138 146.605 0)
(-14.9981 136.224 0)
(-17.7547 122.23 0)
(-19.2727 105.51 0)
(-19.6658 87.1098 0)
(-19.0392 68.1731 0)
(-17.4131 49.8403 0)
(-14.6503 33.1704 0)
(-10.8096 18.8046 0)
(-9.66897 4.74695 0)
(-6.84744 -12.9854 0)
(-3.8374 -29.977 0)
(-2.36751 -44.8785 0)
(-1.67442 -59.769 0)
(-1.82618 -74.5996 0)
(-2.62352 -89.3469 0)
(-3.9046 -103.715 0)
(-5.50425 -117.117 0)
(-7.27751 -128.678 0)
(-9.00816 -137.16 0)
(-10.1974 -140.437 0)
(-10.5514 -137.784 0)
(-10.1693 -130.841 0)
(-8.98271 -119.969 0)
(-7.02915 -105.881 0)
(-4.41802 -89.5179 0)
(-1.31065 -71.926 0)
(1.9734 -54.1214 0)
(4.87959 -36.9844 0)
(7.46233 -21.3521 0)
(11.7539 -7.24817 0)
(16.3923 8.07782 0)
(20.3946 22.0488 0)
(21.8935 34.5042 0)
(22.1995 45.6189 0)
(21.6957 56.0796 0)
(20.2957 66.3877 0)
(18.1116 76.6773 0)
(15.2848 86.7762 0)
(11.939 96.2624 0)
(8.19186 104.512 0)
(4.19129 110.656 0)
(0.221612 113.335 0)
(-3.39242 111.783 0)
(-6.50491 107.086 0)
(-9.01122 99.3679 0)
(-10.8351 88.9761 0)
(-11.9717 76.4813 0)
(-12.4534 62.6265 0)
(-12.2612 48.2584 0)
(-11.3026 34.3566 0)
(-9.31527 21.9522 0)
(-7.32278 11.3508 0)
(-7.38041 -1.68196 0)
(-5.94709 -17.7623 0)
(-4.16217 -31.2878 0)
(-3.39929 -43.3448 0)
(-3.16077 -54.722 0)
(-3.3546 -65.4015 0)
(-3.89523 -75.4007 0)
(-4.68093 -84.5891 0)
(-5.61585 -92.6348 0)
(-6.57792 -98.9282 0)
(-7.27332 -102.336 0)
(-7.41129 -101.502 0)
(-7.05542 -97.6923 0)
(-6.16968 -91.0634 0)
(-4.75008 -81.9845 0)
(-2.86853 -70.9922 0)
(-0.65652 -58.7299 0)
(1.70478 -45.8736 0)
(3.85403 -33.0996 0)
(5.25631 -21.1028 0)
(7.50341 -10.624 0)
(10.7179 1.28797 0)
(13.8174 12.9941 0)
(15.5412 24.0117 0)
(15.9133 33.8219 0)
(15.6147 42.6505 0)
(14.6842 50.8285 0)
(13.1603 58.5053 0)
(11.1831 65.6831 0)
(8.85601 72.2114 0)
(6.27297 77.7941 0)
(3.54338 81.9184 0)
(6.8948 8.78885 0)
(13.1714 -0.41498 0)
(18.8043 -11.8262 0)
(21.8253 -26.5315 0)
(21.9546 -45.4167 0)
(20.3519 -68.6973 0)
(17.482 -95.146 0)
(13.3144 -122.586 0)
(8.18768 -148.834 0)
(2.32506 -171.636 0)
(-3.96052 -188.72 0)
(-9.96244 -197.692 0)
(-14.7884 -196.111 0)
(-18.302 -187.59 0)
(-20.3208 -172.927 0)
(-20.7171 -153.495 0)
(-19.5405 -131.072 0)
(-16.8721 -107.209 0)
(-12.999 -83.4457 0)
(-8.32058 -61.2218 0)
(-3.4651 -41.2828 0)
(0.721126 -23.4183 0)
(6.96429 -8.60683 0)
(13.4269 6.23187 0)
(19.1302 20.3019 0)
(21.8296 33.9048 0)
(22.972 47.8254 0)
(22.9738 62.8936 0)
(21.6424 79.4085 0)
(19.1136 96.9108 0)
(15.658 114.468 0)
(11.3581 130.914 0)
(6.42046 145.028 0)
(1.12407 155.332 0)
(-3.99479 159.865 0)
(-8.40395 157.55 0)
(-11.9335 150.406 0)
(-14.348 138.84 0)
(-15.5289 123.626 0)
(-15.5357 105.808 0)
(-14.5575 86.4626 0)
(-12.8123 66.6024 0)
(-10.4639 47.2297 0)
(-7.57016 29.4318 0)
(-4.27127 14.8034 0)
(-0.733212 4.88633 0)
(3.07639 -16.4714 0)
(5.93159 -32.6341 0)
(7.68446 -46.3337 0)
(8.13312 -59.9385 0)
(7.59085 -73.8764 0)
(6.24054 -88.0037 0)
(4.31427 -101.925 0)
(1.90062 -115.013 0)
(-0.833888 -126.429 0)
(-3.69904 -135.003 0)
(-6.2836 -138.913 0)
(-8.198 -136.939 0)
(-9.41423 -130.79 0)
(-9.80213 -120.748 0)
(-9.31131 -107.446 0)
(-8.01751 -91.7822 0)
(-6.08666 -74.6396 0)
(-3.78295 -56.9836 0)
(-1.46041 -39.8004 0)
(0.410773 -23.8702 0)
(2.89125 -10.1789 0)
(7.49224 1.04935 0)
(11.6752 20.8057 0)
(13.3479 33.6787 0)
(13.9367 45.5403 0)
(13.8424 56.8151 0)
(12.9396 67.9001 0)
(11.2992 78.8721 0)
(9.07827 89.5257 0)
(6.41086 99.4357 0)
(3.42139 107.971 0)
(0.276481 114.216 0)
(-2.67438 116.601 0)
(-5.13282 114.587 0)
(-7.03057 109.307 0)
(-8.2823 100.936 0)
(-8.85835 89.906 0)
(-8.817 76.8314 0)
(-8.27345 62.3975 0)
(-7.34623 47.3617 0)
(-6.10199 32.6384 0)
(-4.3876 19.3645 0)
(-2.00331 8.89999 0)
(-0.482222 -0.304324 0)
(1.94928 -20.4158 0)
(3.26465 -32.5985 0)
(4.11908 -43.9808 0)
(4.19942 -54.6667 0)
(3.63989 -64.8394 0)
(2.58771 -74.4785 0)
(1.18491 -83.4178 0)
(-0.454863 -91.3251 0)
(-2.20921 -97.6393 0)
(-3.85458 -101.422 0)
(-5.08204 -101.021 0)
(-5.84662 -97.7119 0)
(-6.10386 -91.6187 0)
(-5.81322 -83.0592 0)
(-5.00385 -72.525 0)
(-3.78226 -60.5921 0)
(-2.30876 -47.8363 0)
(-0.802784 -34.9081 0)
(0.421283 -22.5761 0)
(1.45362 -11.7036 0)
(3.97708 -3.67144 0)
(7.15593 10.9774 0)
(8.94931 23.3749 0)
(9.50046 33.7132 0)
(9.52428 43.1556 0)
(9.0029 51.8681 0)
(7.94866 60.0055 0)
(6.48856 67.5577 0)
(4.72034 74.3666 0)
(2.73819 80.1258 0)
(0.663593 84.2923 0)
(-8.52846 -0.777041 0)
(-6.70429 -1.09252 0)
(-4.28601 -1.32161 0)
(-1.47408 -1.46758 0)
(1.57529 -1.52633 0)
(4.48661 -1.47219 0)
(7.13284 -1.3067 0)
(9.42844 -1.01862 0)
(11.0753 -0.662672 0)
(11.967 -0.256964 0)
(11.9924 0.192414 0)
(11.0674 0.663539 0)
(9.29018 1.02559 0)
(6.89244 1.29085 0)
(4.30502 1.59654 0)
(1.7538 1.41048 0)
(-0.73993 1.15927 0)
(-2.821 0.857772 0)
(-4.27515 0.545038 0)
(-5.12648 0.235273 0)
(-5.3475 -0.0643933 0)
(-4.97694 -0.331391 0)
(-4.11469 -0.540416 0)
(-2.85032 -0.667542 0)
(-1.37903 -0.732172 0)
(0.1032 -0.714393 0)
(1.37265 -0.678425 0)
(2.39877 -0.45231 0)
(3.11628 -0.238879 0)
(3.39227 -0.00504042 0)
(3.14898 0.206379 0)
(2.41894 0.406735 0)
(1.45888 0.617681 0)
(0.289666 0.662559 0)
(-1.02634 0.660511 0)
(-2.28894 0.595706 0)
(-3.42891 0.492632 0)
(-4.35868 0.368862 0)
(-5.02599 0.235444 0)
(-5.40411 0.0954508 0)
(-5.48047 -0.0486784 0)
(-5.25059 -0.191958 0)
(-4.72191 -0.3272 0)
(-3.92395 -0.444168 0)
(-2.91401 -0.526103 0)
(-1.77248 -0.563925 0)
(-0.599574 -0.558394 0)
(0.514194 -0.512583 0)
(1.50784 -0.44431 0)
(2.31895 -0.340056 0)
(2.9024 -0.229402 0)
(3.24027 -0.107196 0)
(3.31891 0.00649922 0)
(3.14489 0.115404 0)
(2.82195 0.226799 0)
(2.39913 0.253586 0)
(1.8818 0.2551 0)
(1.35172 0.23858 0)
(0.868874 0.200847 0)
(0.479694 0.147229 0)
(0.21841 0.0825118 0)
(0.104517 0.0125075 0)
(0.140644 -0.054925 0)
(0.312769 -0.112363 0)
(0.591813 -0.15372 0)
(0.939264 -0.17509 0)
(1.30367 -0.172479 0)
(1.63777 -0.148073 0)
(1.8951 -0.103986 0)
(2.0425 -0.0382028 0)
(2.06472 0.044148 0)
(1.9499 0.122562 0)
(1.69759 0.184773 0)
(1.31592 0.233696 0)
(0.830135 0.268259 0)
(0.272899 0.286615 0)
(-0.32027 0.288679 0)
(-0.915225 0.277226 0)
(-1.48174 0.254518 0)
(-1.99504 0.223064 0)
(-2.43561 0.184815 0)
(-2.78752 0.140348 0)
(-3.03567 0.088849 0)
(-3.16651 0.0311438 0)
(-3.16995 -0.0297936 0)
(-3.04245 -0.0883444 0)
(-2.79988 -0.138696 0)
(-2.46113 -0.177414 0)
(-2.05318 -0.203792 0)
(-1.60183 -0.218758 0)
(-1.1317 -0.222611 0)
(-0.666793 -0.215858 0)
(-0.228537 -0.20063 0)
(0.165563 -0.177317 0)
(0.495842 -0.155847 0)
(0.762475 -0.117972 0)
(0.966143 -0.0872707 0)
(1.10622 -0.0590785 0)
(1.18868 -0.0357591 0)
(1.22642 -0.0187946 0)
(1.23394 -0.00848729 0)
(1.2259 -0.00391663 0)
(1.21611 -0.00537379 0)
(1.21687 -0.0116932 0)
(1.23686 -0.0208824 0)
(1.27985 -0.031191 0)
(1.34565 -0.0400888 0)
(1.42702 -0.0443157 0)
(1.51231 -0.0423899 0)
(1.58726 -0.0339897 0)
(1.63753 -0.0190063 0)
(1.64807 0.00193199 0)
(1.60568 0.0318296 0)
(1.5209 0.0791145 0)
(1.38801 0.107829 0)
(1.18698 0.132015 0)
(0.924767 0.154965 0)
(0.610132 0.174301 0)
(0.254438 0.187031 0)
(-0.127716 0.192428 0)
(-0.520078 0.19064 0)
(-7.67538 -2.36602 0)
(-5.69959 -3.24598 0)
(-3.22687 -3.85107 0)
(-0.428861 -4.21596 0)
(2.51963 -4.36359 0)
(5.28923 -4.29547 0)
(7.80137 -3.66414 0)
(9.88542 -2.7631 0)
(11.2673 -1.69868 0)
(11.8591 -0.515667 0)
(11.6153 0.768762 0)
(10.5203 2.03471 0)
(8.61505 3.0909 0)
(6.25552 3.71575 0)
(3.5628 4.2468 0)
(0.767911 3.94133 0)
(-1.59483 3.28326 0)
(-3.47063 2.45147 0)
(-4.76232 1.54203 0)
(-5.43242 0.625592 0)
(-5.48269 -0.250683 0)
(-4.98395 -1.02953 0)
(-4.01426 -1.64601 0)
(-2.69169 -2.02988 0)
(-1.20587 -2.18798 0)
(0.236534 -2.08293 0)
(1.56186 -1.79233 0)
(2.50864 -1.26076 0)
(3.04465 -0.625711 0)
(3.20684 0.0142504 0)
(2.91854 0.718884 0)
(2.28024 1.30933 0)
(1.273 1.74854 0)
(-0.0363363 1.92532 0)
(-1.35962 1.93361 0)
(-2.59918 1.76074 0)
(-3.66886 1.46214 0)
(-4.50399 1.08624 0)
(-5.07136 0.670798 0)
(-5.34654 0.239018 0)
(-5.33273 -0.198817 0)
(-5.03095 -0.632278 0)
(-4.44344 -1.04104 0)
(-3.59104 -1.38732 0)
(-2.53137 -1.6265 0)
(-1.35333 -1.72815 0)
(-0.16435 -1.68902 0)
(0.942173 -1.53445 0)
(1.89277 -1.29476 0)
(2.63533 -0.984239 0)
(3.16375 -0.647495 0)
(3.44392 -0.295287 0)
(3.47125 0.103166 0)
(3.29739 0.413494 0)
(2.90692 0.649456 0)
(2.37263 0.774252 0)
(1.81193 0.802812 0)
(1.2581 0.753946 0)
(0.759173 0.637824 0)
(0.360111 0.466924 0)
(0.0989431 0.259238 0)
(-0.00763442 0.0371613 0)
(0.0371841 -0.175091 0)
(0.221112 -0.354936 0)
(0.514277 -0.483269 0)
(0.873532 -0.543016 0)
(1.2465 -0.527994 0)
(1.58228 -0.444517 0)
(1.84205 -0.304703 0)
(1.98897 -0.114699 0)
(1.99885 0.111926 0)
(1.84328 0.340942 0)
(1.53996 0.539647 0)
(1.1169 0.69965 0)
(0.599688 0.812462 0)
(0.021718 0.873998 0)
(-0.580668 0.885165 0)
(-1.17269 0.850375 0)
(-1.72369 0.777559 0)
(-2.21008 0.675755 0)
(-2.61568 0.551954 0)
(-2.92786 0.4088 0)
(-3.13195 0.24595 0)
(-3.22035 0.0645998 0)
(-3.17726 -0.126624 0)
(-3.0002 -0.310844 0)
(-2.70126 -0.467422 0)
(-2.30813 -0.583691 0)
(-1.85289 -0.659884 0)
(-1.36297 -0.70054 0)
(-0.862663 -0.705598 0)
(-0.375851 -0.675529 0)
(0.0728462 -0.615 0)
(0.463579 -0.533331 0)
(0.790968 -0.44135 0)
(1.04427 -0.338596 0)
(1.222 -0.241611 0)
(1.3317 -0.150868 0)
(1.38096 -0.072708 0)
(1.38093 -0.0155983 0)
(1.35093 0.0163256 0)
(1.30612 0.0291064 0)
(1.26049 0.0206927 0)
(1.22798 -0.00373585 0)
(1.21799 -0.0368599 0)
(1.2361 -0.0724911 0)
(1.28091 -0.103432 0)
(1.34468 -0.1183 0)
(1.41383 -0.113431 0)
(1.47313 -0.0878429 0)
(1.50861 -0.0422474 0)
(1.50968 0.0205622 0)
(1.4702 0.100639 0)
(1.36621 0.200833 0)
(1.19281 0.294067 0)
(0.967638 0.379508 0)
(0.687744 0.455975 0)
(0.358429 0.518396 0)
(-0.00842875 0.561753 0)
(-0.397309 0.582154 0)
(-0.79025 0.577975 0)
(-6.96851 -3.83767 0)
(-5.08089 -5.41118 0)
(-2.81495 -6.4873 0)
(-0.361477 -7.14238 0)
(2.15377 -7.32258 0)
(4.76143 -6.98545 0)
(7.14667 -5.88553 0)
(8.94273 -4.36052 0)
(10.1774 -2.55224 0)
(10.7821 -0.617605 0)
(10.7409 1.4504 0)
(9.86889 3.63576 0)
(8.07381 5.44516 0)
(5.97243 6.73979 0)
(3.51418 6.88933 0)
(0.787722 6.38178 0)
(-1.47228 5.34196 0)
(-3.21381 3.9598 0)
(-4.41468 2.43345 0)
(-5.06539 0.888792 0)
(-5.16214 -0.562943 0)
(-4.77182 -1.8313 0)
(-3.92491 -2.84103 0)
(-2.70579 -3.47183 0)
(-1.2737 -3.65187 0)
(0.168941 -3.38696 0)
(1.44847 -2.7451 0)
(2.44613 -1.92842 0)
(3.03628 -0.973659 0)
(3.2316 0.102593 0)
(3.14509 1.20723 0)
(2.50912 2.16865 0)
(1.48294 2.78893 0)
(0.256756 3.13211 0)
(-1.04006 3.15149 0)
(-2.27232 2.87365 0)
(-3.34417 2.38283 0)
(-4.19542 1.76128 0)
(-4.79955 1.0795 0)
(-5.14651 0.379354 0)
(-5.22613 -0.315859 0)
(-5.04746 -1.00366 0)
(-4.57696 -1.68966 0)
(-3.80467 -2.31536 0)
(-2.77504 -2.75481 0)
(-1.59476 -2.93935 0)
(-0.385992 -2.86596 0)
(0.746308 -2.58122 0)
(1.73153 -2.15175 0)
(2.52554 -1.63291 0)
(3.09003 -1.05611 0)
(3.44706 -0.418409 0)
(3.54866 0.204617 0)
(3.35887 0.707743 0)
(2.96853 1.05899 0)
(2.43443 1.28069 0)
(1.83455 1.35263 0)
(1.22791 1.2891 0)
(0.66536 1.1036 0)
(0.198109 0.812925 0)
(-0.125187 0.452302 0)
(-0.268507 0.0753972 0)
(-0.245019 -0.278645 0)
(-0.0593472 -0.581654 0)
(0.262222 -0.800289 0)
(0.675137 -0.899065 0)
(1.11767 -0.866746 0)
(1.52815 -0.719583 0)
(1.85922 -0.486245 0)
(2.0784 -0.190445 0)
(2.163 0.160508 0)
(2.08542 0.52693 0)
(1.82299 0.860796 0)
(1.41728 1.13833 0)
(0.89895 1.33992 0)
(0.306001 1.45407 0)
(-0.32073 1.47927 0)
(-0.942992 1.42229 0)
(-1.52784 1.29788 0)
(-2.05106 1.12385 0)
(-2.49799 0.915323 0)
(-2.85983 0.676643 0)
(-3.1173 0.40612 0)
(-3.25659 0.103151 0)
(-3.25765 -0.225904 0)
(-3.10467 -0.552839 0)
(-2.80905 -0.828551 0)
(-2.40918 -1.02275 0)
(-1.94633 -1.1431 0)
(-1.44742 -1.20441 0)
(-0.93346 -1.2075 0)
(-0.43023 -1.15054 0)
(0.0335084 -1.04147 0)
(0.433405 -0.89383 0)
(0.757496 -0.72433 0)
(1.00421 -0.551289 0)
(1.17306 -0.376023 0)
(1.27092 -0.21758 0)
(1.29804 -0.0848063 0)
(1.26881 0.0113826 0)
(1.21311 0.0669505 0)
(1.14636 0.0856194 0)
(1.08086 0.0711239 0)
(1.03635 0.0300621 0)
(1.02906 -0.0280471 0)
(1.05972 -0.0913592 0)
(1.12951 -0.154231 0)
(1.23074 -0.185109 0)
(1.34315 -0.17878 0)
(1.44849 -0.135928 0)
(1.52882 -0.0582818 0)
(1.57155 0.0458706 0)
(1.57152 0.167906 0)
(1.50573 0.30372 0)
(1.36902 0.454889 0)
(1.16409 0.604366 0)
(0.89279 0.741698 0)
(0.561158 0.855542 0)
(0.181759 0.935139 0)
(-0.227561 0.972713 0)
(-0.645225 0.965349 0)
(-7.88749 -6.26209 0)
(-6.15916 -7.68646 0)
(-3.89953 -8.45191 0)
(-1.38882 -8.85799 0)
(1.33674 -8.94227 0)
(4.12605 -8.64576 0)
(6.4527 -7.77072 0)
(7.96541 -5.9457 0)
(8.86954 -3.70547 0)
(9.32934 -1.34911 0)
(9.6671 1.54262 0)
(9.03738 4.59333 0)
(7.68715 7.15216 0)
(5.53274 9.07089 0)
(2.98157 9.54279 0)
(0.818027 8.87487 0)
(-0.943947 7.36469 0)
(-2.34839 5.46722 0)
(-3.32544 3.45035 0)
(-3.8859 1.45992 0)
(-4.06295 -0.465758 0)
(-3.88217 -2.23609 0)
(-3.32821 -3.74359 0)
(-2.41376 -4.82004 0)
(-1.25909 -5.29466 0)
(-0.0539702 -5.05766 0)
(1.03379 -4.18984 0)
(1.89147 -2.92284 0)
(2.45647 -1.5186 0)
(2.69173 -0.100701 0)
(2.86264 1.51503 0)
(2.57416 3.04905 0)
(1.85041 4.09689 0)
(0.874715 4.64643 0)
(-0.222926 4.68302 0)
(-1.31503 4.27128 0)
(-2.31822 3.53515 0)
(-3.19857 2.60766 0)
(-3.94155 1.61864 0)
(-4.54418 0.6305 0)
(-5.00129 -0.388287 0)
(-5.27523 -1.43549 0)
(-5.21876 -2.43759 0)
(-4.70011 -3.28969 0)
(-3.75016 -3.89801 0)
(-2.51607 -4.16012 0)
(-1.19366 -4.04077 0)
(0.0685481 -3.64637 0)
(1.1906 -3.0852 0)
(2.12983 -2.39496 0)
(2.84259 -1.63075 0)
(3.29436 -0.733185 0)
(3.64945 0.229868 0)
(3.64888 1.03301 0)
(3.37064 1.60583 0)
(2.9011 1.94717 0)
(2.31461 2.06239 0)
(1.66762 1.97597 0)
(1.0019 1.71087 0)
(0.384869 1.30178 0)
(-0.106223 0.76739 0)
(-0.421287 0.176142 0)
(-0.527804 -0.389796 0)
(-0.436694 -0.873645 0)
(-0.164588 -1.24798 0)
(0.254913 -1.44501 0)
(0.744936 -1.44104 0)
(1.22651 -1.24993 0)
(1.64787 -0.910121 0)
(1.97106 -0.460181 0)
(2.14173 0.0861345 0)
(2.24431 0.661787 0)
(2.13132 1.18817 0)
(1.82771 1.62902 0)
(1.37408 1.94372 0)
(0.810149 2.12294 0)
(0.178641 2.1705 0)
(-0.477142 2.09407 0)
(-1.11805 1.91732 0)
(-1.71742 1.66924 0)
(-2.26566 1.37553 0)
(-2.75943 1.03877 0)
(-3.18085 0.64942 0)
(-3.49101 0.204382 0)
(-3.62036 -0.286236 0)
(-3.52561 -0.771982 0)
(-3.22713 -1.17331 0)
(-2.78966 -1.44574 0)
(-2.28144 -1.61843 0)
(-1.72613 -1.72222 0)
(-1.1369 -1.74493 0)
(-0.547021 -1.67239 0)
(0.0015065 -1.5135 0)
(0.474481 -1.28095 0)
(0.857227 -1.01199 0)
(1.15018 -0.757084 0)
(1.33026 -0.520374 0)
(1.41535 -0.274064 0)
(1.42766 -0.0635758 0)
(1.35852 0.0835775 0)
(1.24398 0.138229 0)
(1.11254 0.182198 0)
(0.98867 0.148115 0)
(0.890685 0.0591318 0)
(0.836299 -0.0580322 0)
(0.843518 -0.181893 0)
(0.921509 -0.277001 0)
(1.06338 -0.328279 0)
(1.23209 -0.327817 0)
(1.4028 -0.272233 0)
(1.54657 -0.161791 0)
(1.64544 -0.0161563 0)
(1.70935 0.182617 0)
(1.72266 0.392022 0)
(1.63976 0.614095 0)
(1.46661 0.839319 0)
(1.20914 1.04706 0)
(0.869376 1.22274 0)
(0.459528 1.35033 0)
(0.0012347 1.41661 0)
(-0.476685 1.41375 0)
(-1.29564 -5.55946 0)
(-2.12631 -9.88317 0)
(-2.99266 -12.1463 0)
(-3.7039 -13.8001 0)
(-3.44427 -14.2591 0)
(-1.92807 -12.9656 0)
(0.709949 -10.2437 0)
(3.41483 -7.06507 0)
(5.33259 -3.89689 0)
(6.36026 -1.0679 0)
(6.79945 1.05961 0)
(6.66223 6.24289 0)
(5.9017 9.41301 0)
(4.44517 11.2019 0)
(2.45561 11.8572 0)
(0.576988 10.8461 0)
(-1.16922 8.98227 0)
(-2.67653 6.6553 0)
(-3.941 4.10076 0)
(-4.75266 1.55593 0)
(-5.02957 -0.678678 0)
(-4.94627 -2.63809 0)
(-4.461 -4.49732 0)
(-3.34195 -5.70922 0)
(-1.74568 -6.00119 0)
(-0.0984734 -5.56781 0)
(1.26735 -4.54617 0)
(2.17034 -3.18658 0)
(2.58277 -1.76746 0)
(2.52056 -0.360384 0)
(2.59459 1.37905 0)
(2.45015 3.01483 0)
(1.84189 4.28619 0)
(1.10672 5.08947 0)
(0.434748 5.29925 0)
(-0.155334 4.96242 0)
(-0.727003 4.33193 0)
(-1.22591 3.48912 0)
(-1.67658 2.55978 0)
(-2.12748 1.58033 0)
(-2.68603 0.621673 0)
(-3.41612 -0.445588 0)
(-4.14094 -1.97806 0)
(-4.61369 -3.77835 0)
(-4.58043 -5.11316 0)
(-3.82977 -5.77426 0)
(-2.79091 -5.72885 0)
(-1.6524 -5.17415 0)
(-0.42272 -4.33953 0)
(0.824485 -3.2812 0)
(1.91934 -2.1515 0)
(2.68441 -1.26897 0)
(3.35277 -0.155869 0)
(3.80455 0.907023 0)
(3.82693 1.77154 0)
(3.51764 2.34415 0)
(2.96256 2.60766 0)
(2.21819 2.67174 0)
(1.34087 2.44991 0)
(0.474139 1.92937 0)
(-0.2444 1.24171 0)
(-0.740376 0.505747 0)
(-0.983835 -0.224197 0)
(-0.97472 -0.908364 0)
(-0.64303 -1.52336 0)
(-0.0774476 -1.85131 0)
(0.577097 -1.8541 0)
(1.22295 -1.59802 0)
(1.80202 -1.17395 0)
(2.28074 -0.708781 0)
(2.6871 -0.173553 0)
(2.84016 0.543598 0)
(2.7836 1.26144 0)
(2.51807 1.89206 0)
(2.0644 2.37538 0)
(1.47744 2.68415 0)
(0.80316 2.81136 0)
(0.0896013 2.75397 0)
(-0.616059 2.55708 0)
(-1.28305 2.27828 0)
(-1.92887 1.96739 0)
(-2.5806 1.61966 0)
(-3.23377 1.18157 0)
(-3.84547 0.612774 0)
(-4.31961 -0.118485 0)
(-4.51813 -0.945913 0)
(-4.35772 -1.64476 0)
(-3.9747 -2.0382 0)
(-3.51087 -2.24816 0)
(-2.93075 -2.39433 0)
(-2.21932 -2.42495 0)
(-1.43993 -2.29691 0)
(-0.665759 -2.04398 0)
(0.0352067 -1.70331 0)
(0.635107 -1.36728 0)
(1.16662 -1.02075 0)
(1.54048 -0.620419 0)
(1.76725 -0.333422 0)
(1.85584 -0.0266469 0)
(1.81688 0.197149 0)
(1.70626 0.305013 0)
(1.5555 0.338582 0)
(1.40315 0.293447 0)
(1.26686 0.179944 0)
(1.1921 0.0139029 0)
(1.17551 -0.127864 0)
(1.23629 -0.401833 0)
(1.37969 -0.511316 0)
(1.5789 -0.536519 0)
(1.79793 -0.473699 0)
(2.00254 -0.311557 0)
(2.16475 -0.127705 0)
(2.26179 0.05132 0)
(2.28316 0.3537 0)
(2.21876 0.708524 0)
(2.04732 1.03287 0)
(1.75969 1.34975 0)
(1.36125 1.62891 0)
(0.862538 1.83529 0)
(0.28748 1.93801 0)
(-0.325666 1.92638 0)
(17.6018 -4.83054 0)
(21.3227 -5.17798 0)
(22.5943 -4.82678 0)
(21.289 -6.46465 0)
(18.2891 -9.25048 0)
(14.5461 -11.856 0)
(11.1825 -12.6191 0)
(8.57054 -10.8543 0)
(6.87232 -7.70382 0)
(5.74008 -3.8446 0)
(4.40684 0.492532 0)
(4.11097 5.05939 0)
(4.0819 8.77339 0)
(3.8173 11.5248 0)
(2.8488 13.2376 0)
(1.20375 12.677 0)
(-0.954474 10.9725 0)
(-3.28451 8.69916 0)
(-5.58179 6.17156 0)
(-7.73213 3.19294 0)
(-9.28471 0.104418 0)
(-10.8071 -2.4667 0)
(-11.9561 -4.92446 0)
(-12.0829 -7.46101 0)
(-10.8905 -8.93142 0)
(-8.54086 -8.66729 0)
(-5.83004 -7.07696 0)
(-3.16989 -4.68726 0)
(-1.12491 -2.05567 0)
(0.472638 -0.397874 0)
(1.26881 1.02935 0)
(1.61136 4.04906 0)
(1.22607 5.55638 0)
(0.41525 6.28789 0)
(-0.543911 6.12704 0)
(-1.62547 5.56187 0)
(-2.702 4.7055 0)
(-3.44032 3.65337 0)
(-3.62439 2.60272 0)
(-3.46391 1.72827 0)
(-3.27944 0.875598 0)
(-3.00378 -0.0917934 0)
(-2.4787 -1.22735 0)
(-1.68851 -2.72962 0)
(-0.583028 -4.50398 0)
(0.76733 -5.71702 0)
(1.98552 -5.79333 0)
(2.76329 -5.75331 0)
(3.39665 -5.60831 0)
(4.16673 -4.99692 0)
(4.87146 -3.87341 0)
(5.53974 -2.67083 0)
(6.1352 -1.08406 0)
(6.60476 0.618133 0)
(6.74421 1.9927 0)
(6.31451 2.94282 0)
(5.2442 3.41798 0)
(3.7154 3.6077 0)
(1.93344 3.53195 0)
(0.104489 3.10983 0)
(-1.51264 2.13924 0)
(-2.77084 0.941643 0)
(-3.69218 -0.24125 0)
(-4.25325 -1.2598 0)
(-4.09198 -2.10078 0)
(-3.11199 -2.67261 0)
(-1.8316 -2.79664 0)
(-0.481529 -2.54714 0)
(0.867077 -2.10413 0)
(2.1727 -1.41948 0)
(3.10195 -0.466881 0)
(3.65658 0.508869 0)
(3.82517 1.47539 0)
(3.54561 2.33916 0)
(2.80829 2.94456 0)
(1.82688 3.3351 0)
(0.678742 3.52718 0)
(-0.522922 3.50232 0)
(-1.64374 3.3116 0)
(-2.57118 3.04919 0)
(-3.33694 2.77086 0)
(-4.01366 2.41488 0)
(-4.57881 1.95087 0)
(-5.06136 1.32643 0)
(-5.3978 0.404673 0)
(-5.3564 -0.757158 0)
(-4.77368 -1.65073 0)
(-4.07442 -2.13659 0)
(-3.51405 -2.52894 0)
(-2.92341 -2.95213 0)
(-2.16406 -3.19338 0)
(-1.32781 -3.23757 0)
(-0.505649 -3.10801 0)
(0.209674 -2.75597 0)
(0.75996 -2.29076 0)
(1.22868 -1.76603 0)
(1.66602 -1.18805 0)
(1.98531 -0.594698 0)
(2.16038 -0.0915116 0)
(2.15326 0.263598 0)
(1.99571 0.446075 0)
(1.78899 0.4918 0)
(1.58557 0.428781 0)
(1.42853 0.278311 0)
(1.36249 0.0506993 0)
(1.41089 -0.224405 0)
(1.61476 -0.475466 0)
(1.92478 -0.662379 0)
(2.31145 -0.745517 0)
(2.72474 -0.698273 0)
(3.11012 -0.534104 0)
(3.41942 -0.273411 0)
(3.60142 0.0606597 0)
(3.64146 0.442804 0)
(3.53123 0.857778 0)
(3.2487 1.28256 0)
(2.78607 1.70651 0)
(2.16072 2.07551 0)
(1.38107 2.36106 0)
(0.477345 2.55351 0)
(-0.496239 2.6158 0)
(-12.5829 -15.6666 0)
(-2.67072 -16.5386 0)
(8.9092 -14.4439 0)
(20.3257 -11.2889 0)
(30.3136 -8.44864 0)
(38.7319 -6.60773 0)
(43.3588 -3.83944 0)
(43.3937 -1.29191 0)
(41.109 0.686511 0)
(37.4643 1.84329 0)
(33.2079 2.65739 0)
(29.3268 6.19533 0)
(25.2634 9.90386 0)
(21.0401 12.9026 0)
(17.2074 14.7758 0)
(13.2742 14.6994 0)
(9.07411 13.2679 0)
(4.5945 10.9279 0)
(0.384296 8.04544 0)
(-3.0334 5.25102 0)
(-6.20319 2.44538 0)
(-8.87714 0.378765 0)
(-11.4651 -3.61491 0)
(-13.0872 -6.7551 0)
(-13.256 -9.26417 0)
(-12.0935 -10.3287 0)
(-9.96781 -9.6582 0)
(-7.61229 -7.84051 0)
(-5.18909 -5.37767 0)
(-3.02284 -2.85055 0)
(-2.1744 -0.0904263 0)
(-1.69322 3.0241 0)
(-2.0697 5.35296 0)
(-3.3906 6.76081 0)
(-5.68065 7.32754 0)
(-8.80919 7.18768 0)
(-12.5449 6.38756 0)
(-16.5851 4.54511 0)
(-20.4719 2.4512 0)