/*--------------------------------*- C++ -*----------------------------------*\
| =========                 |                                                 |
| \\      /  F ield         | OpenFOAM: The Open Source CFD Toolbox           |
|  \\    /   O peration     | Version:  2206                                  |
|   \\  /    A nd           | Website:  www.openfoam.com                      |
|    \\/     M anipulation  |                                                 |
\*---------------------------------------------------------------------------*/
FoamFile
{
    version     2.0;
    format      ascii;
    arch        "LSB;label=32;scalar=64";
    class       volVectorField;
    location    "20.0001";
    object      ddtCorrDdt0(U);
}
// * * * * * * * * * * * * * * * * * * * * * * * * * * * * * * * * * * * * * //

dimensions      [0 1 -2 0 0 0 0];

internalField   nonuniform List<vector> 
3025
(
(1.04738e-05 0.000898375 0)
(4.58751e-05 0.00282654 0)
(0.000122277 0.00482796 0)
(0.000251339 0.00680782 0)
(0.00042889 0.00874213 0)
(0.000648258 0.0106037 0)
(0.000907857 0.0123524 0)
(0.00120663 0.0139485 0)
(0.00154154 0.0153595 0)
(0.00190762 0.0165603 0)
(0.00229992 0.0175339 0)
(0.00271322 0.0182713 0)
(0.00314239 0.0187718 0)
(0.00358193 0.0190414 0)
(0.00402689 0.0190937 0)
(0.00447205 0.0189486 0)
(0.00491331 0.0186338 0)
(0.00534693 0.018184 0)
(0.00577014 0.0176405 0)
(0.00618012 0.0170481 0)
(0.00657636 0.0164545 0)
(0.00695931 0.0159081 0)
(0.00733051 0.0154572 0)
(0.00769114 0.0151472 0)
(0.00804553 0.0150212 0)
(0.00839881 0.0151182 0)
(0.00875576 0.0154738 0)
(0.00912527 0.0161162 0)
(0.00950369 0.0170726 0)
(0.00991501 0.0183608 0)
(0.0103607 0.0199919 0)
(0.0108434 0.0219743 0)
(0.0113748 0.0243066 0)
(0.0119755 0.0269862 0)
(0.012623 0.0299968 0)
(0.0133738 0.0333309 0)
(0.0141787 0.0369591 0)
(0.0150996 0.0408687 0)
(0.0160973 0.0450265 0)
(0.017206 0.0494136 0)
(0.0184319 0.0540049 0)
(0.0197415 0.058771 0)
(0.02121 0.0637057 0)
(0.0227511 0.0687738 0)
(0.0244538 0.0739818 0)
(0.0262613 0.0793102 0)
(0.0281957 0.0847592 0)
(0.0302779 0.0903444 0)
(0.0324782 0.0960603 0)
(0.0348143 0.101936 0)
(0.0373285 0.108007 0)
(0.0399277 0.114262 0)
(0.0427549 0.120804 0)
(0.0456968 0.127614 0)
(0.0488048 0.134756 0)
(0.0521179 0.14236 0)
(0.0555306 0.15035 0)
(0.0591596 0.159112 0)
(0.062966 0.168389 0)
(0.0670464 0.178347 0)
(0.0713807 0.189035 0)
(0.0759583 0.200608 0)
(0.0808434 0.213122 0)
(0.0860549 0.226638 0)
(0.091621 0.241241 0)
(0.0975792 0.25701 0)
(0.103979 0.274028 0)
(0.110856 0.292375 0)
(0.118261 0.312136 0)
(0.126235 0.333396 0)
(0.134837 0.356247 0)
(0.144122 0.380783 0)
(0.154165 0.407106 0)
(0.16504 0.435318 0)
(0.176843 0.465533 0)
(0.189673 0.49787 0)
(0.203653 0.532464 0)
(0.218911 0.569459 0)
(0.235612 0.609022 0)
(0.253932 0.651341 0)
(0.274092 0.696629 0)
(0.296339 0.745136 0)
(0.320982 0.797141 0)
(0.348371 0.852974 0)
(0.378951 0.913025 0)
(0.413252 0.977748 0)
(0.451921 1.04769 0)
(0.495723 1.12353 0)
(0.545627 1.20607 0)
(0.602825 1.29638 0)
(0.668826 1.39586 0)
(0.745495 1.50647 0)
(0.835432 1.631 0)
(0.941672 1.77399 0)
(1.07037 1.94158 0)
(1.22763 2.14969 0)
(1.4421 2.39921 0)
(1.73661 2.79918 0)
(2.47663 3.15244 0)
(3.26264 4.51857 0)
(9.67296e-06 0.000877235 0)
(4.98836e-05 0.00275811 0)
(0.000145565 0.00471037 0)
(0.000299618 0.00664268 0)
(0.000506298 0.00852999 0)
(0.000761817 0.0103451 0)
(0.00106543 0.0120495 0)
(0.00141542 0.0136047 0)
(0.00180747 0.0149793 0)
(0.00223607 0.0161487 0)
(0.00269541 0.0170965 0)
(0.0031796 0.0178137 0)
(0.00368245 0.0182999 0)
(0.0041977 0.0185608 0)
(0.00471928 0.0186099 0)
(0.0052414 0.0184665 0)
(0.005759 0.0181583 0)
(0.00626796 0.0177189 0)
(0.0067644 0.0171882 0)
(0.00724557 0.0166099 0)
(0.00771076 0.0160316 0)
(0.0081607 0.0154996 0)
(0.00859604 0.0150607 0)
(0.00901918 0.0147588 0)
(0.0094348 0.0146374 0)
(0.00984951 0.0147334 0)
(0.0102667 0.0150814 0)
(0.0107015 0.0157087 0)
(0.011138 0.0166421 0)
(0.011632 0.0178985 0)
(0.012141 0.0194892 0)
(0.0127142 0.0214215 0)
(0.0133334 0.0236943 0)
(0.0140328 0.0263044 0)
(0.0148023 0.0292397 0)
(0.0156644 0.0324851 0)
(0.0166311 0.0360226 0)
(0.0176795 0.0398257 0)
(0.0188808 0.0438809 0)
(0.020153 0.0481481 0)
(0.0216039 0.0526238 0)
(0.0231399 0.0572643 0)
(0.0248419 0.0620684 0)
(0.0266789 0.06701 0)
(0.0286395 0.072076 0)
(0.0307875 0.0772724 0)
(0.0330352 0.0825766 0)
(0.0354902 0.0880194 0)
(0.0380505 0.0935829 0)
(0.0408266 0.0993183 0)
(0.043708 0.105204 0)
(0.0468333 0.111336 0)
(0.0500627 0.117662 0)
(0.0535324 0.124324 0)
(0.0571723 0.13131 0)
(0.0609682 0.13865 0)
(0.0650424 0.14663 0)
(0.0692483 0.155044 0)
(0.0737359 0.16407 0)
(0.0785222 0.173797 0)
(0.0835908 0.184231 0)
(0.0889719 0.19547 0)
(0.094697 0.207622 0)
(0.100801 0.220754 0)
(0.107323 0.234943 0)
(0.114312 0.250264 0)
(0.121802 0.266798 0)
(0.129843 0.284616 0)
(0.138483 0.303798 0)
(0.147781 0.32442 0)
(0.157797 0.346571 0)
(0.168606 0.370332 0)
(0.180283 0.395798 0)
(0.192921 0.423061 0)
(0.206619 0.452224 0)
(0.221495 0.483391 0)
(0.237675 0.51668 0)
(0.255314 0.552217 0)
(0.274581 0.590144 0)
(0.295686 0.630618 0)
(0.318851 0.67381 0)
(0.344378 0.719936 0)
(0.372585 0.769208 0)
(0.403873 0.82189 0)
(0.438724 0.878278 0)
(0.477734 0.938725 0)
(0.521612 1.00363 0)
(0.571241 1.07347 0)
(0.62774 1.14885 0)
(0.692536 1.2305 0)
(0.767495 1.31939 0)
(0.855073 1.41682 0)
(0.959015 1.52459 0)
(1.08355 1.64558 0)
(1.24087 1.7827 0)
(1.42788 1.94567 0)
(1.73377 2.12515 0)
(1.91712 2.36794 0)
(3.15601 2.65083 0)
(1.86092 2.16604 0)
(1.03318e-05 0.000850741 0)
(5.60535e-05 0.00267967 0)
(0.000166617 0.00457562 0)
(0.000342627 0.00645071 0)
(0.000578394 0.00828234 0)
(0.000870225 0.0100442 0)
(0.00121695 0.011698 0)
(0.00161624 0.0132066 0)
(0.00206356 0.0145393 0)
(0.00255286 0.0156727 0)
(0.00307753 0.0165904 0)
(0.00363064 0.0172844 0)
(0.00420515 0.0177537 0)
(0.00479403 0.0180047 0)
(0.00539037 0.0180498 0)
(0.0059876 0.0179086 0)
(0.00658005 0.0176074 0)
(0.00716263 0.0171792 0)
(0.00773096 0.0166626 0)
(0.00828204 0.016101 0)
(0.00881499 0.0155396 0)
(0.00932997 0.0150237 0)
(0.00982817 0.0145984 0)
(0.0103126 0.0143074 0)
(0.0107885 0.0141912 0)
(0.0112625 0.0142865 0)
(0.0117393 0.0146257 0)
(0.0122354 0.0152374 0)
(0.0127379 0.0161437 0)
(0.0132943 0.0173634 0)
(0.0138826 0.0189074 0)
(0.0145289 0.0207818 0)
(0.0152459 0.0229871 0)
(0.01603 0.0255169 0)
(0.0169254 0.0283642 0)
(0.0178928 0.0315075 0)
(0.0190057 0.0349376 0)
(0.0202028 0.0386228 0)
(0.0215635 0.0425512 0)
(0.0230371 0.0466898 0)
(0.0246656 0.0510212 0)
(0.0264497 0.055525 0)
(0.0283709 0.0601746 0)
(0.0304796 0.0649675 0)
(0.0327233 0.0698769 0)
(0.0351647 0.0749123 0)
(0.0377446 0.0800539 0)
(0.0405466 0.0853336 0)
(0.0434635 0.0907171 0)
(0.0466432 0.0962865 0)
(0.0499356 0.101988 0)
(0.0534784 0.107923 0)
(0.0571966 0.114081 0)
(0.0611143 0.120517 0)
(0.0652801 0.127321 0)
(0.0696049 0.134449 0)
(0.074228 0.142171 0)
(0.0790692 0.150338 0)
(0.0842409 0.159092 0)
(0.0897068 0.168475 0)
(0.0954602 0.178567 0)
(0.101601 0.189495 0)
(0.108165 0.20128 0)
(0.11515 0.213991 0)
(0.122597 0.227717 0)
(0.130559 0.242533 0)
(0.139085 0.258505 0)
(0.148229 0.275707 0)
(0.15805 0.294212 0)
(0.168609 0.314098 0)
(0.179978 0.33544 0)
(0.192233 0.358319 0)
(0.205462 0.382813 0)
(0.219762 0.409008 0)
(0.235244 0.436989 0)
(0.252031 0.466849 0)
(0.270265 0.498683 0)
(0.290105 0.532599 0)
(0.311738 0.568709 0)
(0.335379 0.607138 0)
(0.361279 0.648024 0)
(0.389735 0.691514 0)
(0.421097 0.737777 0)
(0.455787 0.786995 0)
(0.494313 0.839372 0)
(0.537292 0.895129 0)
(0.585475 0.954515 0)
(0.6398 1.0178 0)
(0.701452 1.08531 0)
(0.771951 1.15737 0)
(0.853297 1.23438 0)
(0.948149 1.31675 0)
(1.06047 1.40495 0)
(1.19464 1.49926 0)
(1.3628 1.59981 0)
(1.55923 1.70349 0)
(1.86931 1.82375 0)
(2.08417 1.80832 0)
(2.90908 2.03362 0)
(3.19732 1.92322 0)
(1.13816e-05 0.000821885 0)
(6.25815e-05 0.00259004 0)
(0.000186764 0.00442221 0)
(0.000383898 0.00623417 0)
(0.000647581 0.00800435 0)
(0.000974077 0.0097064 0)
(0.00136225 0.0113029 0)
(0.00180956 0.0127581 0)
(0.00231063 0.0140429 0)
(0.00285849 0.0151351 0)
(0.00344581 0.0160188 0)
(0.00406515 0.016686 0)
(0.00470874 0.0171362 0)
(0.00536873 0.0173754 0)
(0.00603743 0.017416 0)
(0.00670759 0.0172769 0)
(0.00737265 0.0169838 0)
(0.00802695 0.0165685 0)
(0.00866564 0.0160687 0)
(0.00928537 0.015526 0)
(0.00988459 0.014984 0)
(0.0104635 0.0144865 0)
(0.0110236 0.0140773 0)
(0.0115681 0.013798 0)
(0.0121024 0.0136878 0)
(0.012634 0.0137819 0)
(0.0131693 0.0141118 0)
(0.0137235 0.0147044 0)
(0.014293 0.0155814 0)
(0.0149046 0.0167598 0)
(0.015574 0.0182518 0)
(0.0162891 0.0200603 0)
(0.0170939 0.0221888 0)
(0.0179762 0.024629 0)
(0.0189637 0.0273736 0)
(0.0200692 0.030407 0)
(0.0212833 0.0337102 0)
(0.0226603 0.037268 0)
(0.0241456 0.0410483 0)
(0.0258275 0.0450433 0)
(0.0276308 0.0492141 0)
(0.0296333 0.0535561 0)
(0.0317968 0.0580408 0)
(0.0341348 0.0626551 0)
(0.0366782 0.0673959 0)
(0.0393809 0.072242 0)
(0.0423079 0.0772102 0)
(0.0453972 0.0822834 0)
(0.0487334 0.0875045 0)
(0.0522093 0.0928326 0)
(0.0559795 0.0983807 0)
(0.0598833 0.104065 0)
(0.0640693 0.11003 0)
(0.0684669 0.116252 0)
(0.0730757 0.122769 0)
(0.0780082 0.129782 0)
(0.0831301 0.137148 0)
(0.0885726 0.145014 0)
(0.0943429 0.153443 0)
(0.100448 0.16246 0)
(0.106976 0.172233 0)
(0.113904 0.182771 0)
(0.121208 0.194111 0)
(0.128996 0.206343 0)
(0.137325 0.219548 0)
(0.146223 0.233789 0)
(0.155742 0.249137 0)
(0.165942 0.265661 0)
(0.176887 0.283428 0)
(0.188644 0.302505 0)
(0.201291 0.322961 0)
(0.21491 0.344866 0)
(0.229595 0.368289 0)
(0.24545 0.393305 0)
(0.262591 0.419985 0)
(0.281149 0.448408 0)
(0.301271 0.478652 0)
(0.323123 0.510799 0)
(0.346899 0.544938 0)
(0.37282 0.581158 0)
(0.401145 0.619556 0)
(0.432174 0.660233 0)
(0.466265 0.703291 0)
(0.503842 0.748838 0)
(0.545412 0.796979 0)
(0.591592 0.847813 0)
(0.643127 0.901426 0)
(0.700937 0.957886 0)
(0.766177 1.01721 0)
(0.840313 1.07935 0)
(0.925225 1.14413 0)
(1.02337 1.21114 0)
(1.13815 1.27958 0)
(1.27342 1.34781 0)
(1.43773 1.41358 0)
(1.62948 1.46752 0)
(1.89544 1.52331 0)
(2.14341 1.44721 0)
(2.53743 1.44213 0)
(3.07662 1.29641 0)
(1.25445e-05 0.000789998 0)
(6.91015e-05 0.0024903 0)
(0.00020646 0.00425193 0)
(0.000424093 0.00599326 0)
(0.000714545 0.0076948 0)
(0.00107361 0.00932948 0)
(0.00150057 0.0108618 0)
(0.00199308 0.0122586 0)
(0.00254531 0.0134919 0)
(0.00314925 0.0145392 0)
(0.00379657 0.0153855 0)
(0.00447908 0.0160232 0)
(0.00518865 0.0164517 0)
(0.005917 0.0166769 0)
(0.00665581 0.0167112 0)
(0.00739697 0.0165732 0)
(0.00813315 0.0162878 0)
(0.0088578 0.0158861 0)
(0.00956551 0.0154043 0)
(0.0102524 0.0148823 0)
(0.0109166 0.014362 0)
(0.0115579 0.0138856 0)
(0.0121782 0.0134946 0)
(0.0127811 0.0132291 0)
(0.0133724 0.0131265 0)
(0.0139602 0.0132204 0)
(0.0145514 0.0135407 0)
(0.0151638 0.0141124 0)
(0.0157892 0.0149574 0)
(0.0164694 0.0160912 0)
(0.0171982 0.017524 0)
(0.0179971 0.0192616 0)
(0.0188701 0.0213027 0)
(0.0198551 0.0236456 0)
(0.0209309 0.0262755 0)
(0.0221551 0.0291857 0)
(0.0234928 0.0323509 0)
(0.0249996 0.0357599 0)
(0.0266565 0.0393857 0)
(0.028482 0.0432087 0)
(0.0305005 0.0472121 0)
(0.0326822 0.0513667 0)
(0.0350823 0.0556687 0)
(0.0376608 0.0600913 0)
(0.0404542 0.064632 0)
(0.0434493 0.0692819 0)
(0.0466694 0.0740438 0)
(0.050077 0.0789056 0)
(0.0537556 0.0839146 0)
(0.0576013 0.0890294 0)
(0.0617307 0.0943355 0)
(0.0660708 0.0998138 0)
(0.0706569 0.105516 0)
(0.0755251 0.111508 0)
(0.0806028 0.117759 0)
(0.0860247 0.124477 0)
(0.0917048 0.131557 0)
(0.0977262 0.139116 0)
(0.104095 0.147205 0)
(0.110884 0.155904 0)
(0.118078 0.165267 0)
(0.125646 0.175309 0)
(0.133708 0.186149 0)
(0.142313 0.197866 0)
(0.15148 0.210505 0)
(0.161261 0.224126 0)
(0.171719 0.238795 0)
(0.182916 0.254574 0)
(0.194919 0.271526 0)
(0.207802 0.289712 0)
(0.221646 0.309197 0)
(0.236541 0.33004 0)
(0.252583 0.352302 0)
(0.26988 0.376045 0)
(0.288553 0.401329 0)
(0.308736 0.428213 0)
(0.330577 0.45676 0)
(0.354248 0.487029 0)
(0.379941 0.51908 0)
(0.407878 0.552972 0)
(0.438316 0.588763 0)
(0.471553 0.626503 0)
(0.507937 0.666238 0)
(0.547879 0.708001 0)
(0.591868 0.751807 0)
(0.640485 0.79764 0)
(0.694428 0.845442 0)
(0.754545 0.895087 0)
(0.821875 0.946347 0)
(0.897704 0.99884 0)
(0.983622 1.05194 0)
(1.08162 1.10464 0)
(1.19422 1.15533 0)
(1.32428 1.20139 0)
(1.47643 1.23906 0)
(1.6516 1.25921 0)
(1.86356 1.26289 0)
(2.0964 1.19698 0)
(2.32392 1.07748 0)
(2.66834 0.935619 0)
(1.37755e-05 0.0007549 0)
(7.54853e-05 0.00238067 0)
(0.000224468 0.00406581 0)
(0.000461124 0.00573012 0)
(0.000776162 0.00736023 0)
(0.00116489 0.00892307 0)
(0.00162952 0.0103826 0)
(0.00216652 0.0117113 0)
(0.00276719 0.0128851 0)
(0.00342287 0.0138824 0)
(0.00412574 0.0146878 0)
(0.0048677 0.0152932 0)
(0.00564018 0.0156984 0)
(0.0064345 0.0159095 0)
(0.00724157 0.015938 0)
(0.00805215 0.0158015 0)
(0.00885767 0.0155245 0)
(0.00965079 0.0151372 0)
(0.0104255 0.0146748 0)
(0.0111776 0.0141754 0)
(0.011905 0.0136789 0)
(0.0126075 0.0132254 0)
(0.0132869 0.0128544 0)
(0.0139472 0.0126039 0)
(0.0145942 0.0125094 0)
(0.0152367 0.0126029 0)
(0.0158817 0.0129127 0)
(0.0165505 0.0134627 0)
(0.0172278 0.0142722 0)
(0.017974 0.0153573 0)
(0.0187622 0.0167262 0)
(0.0196313 0.0183855 0)
(0.0205848 0.0203335 0)
(0.0216435 0.0225666 0)
(0.0228311 0.025076 0)
(0.024136 0.0278453 0)
(0.0256188 0.0308655 0)
(0.0272288 0.0341068 0)
(0.0290533 0.0375647 0)
(0.0310276 0.0412023 0)
(0.0332216 0.0450141 0)
(0.0356123 0.0489748 0)
(0.0382013 0.053065 0)
(0.0410341 0.0572849 0)
(0.044055 0.0616044 0)
(0.0473362 0.0660396 0)
(0.0508179 0.0705683 0)
(0.0545714 0.0752193 0)
(0.0585171 0.0799623 0)
(0.0627753 0.084878 0)
(0.0672156 0.0898991 0)
(0.0719737 0.0951476 0)
(0.0769749 0.100587 0)
(0.0822382 0.106267 0)
(0.0878544 0.11233 0)
(0.0937099 0.118672 0)
(0.0999148 0.125418 0)
(0.106494 0.132625 0)
(0.113456 0.140345 0)
(0.120823 0.148646 0)
(0.12862 0.157529 0)
(0.13689 0.167102 0)
(0.14568 0.177447 0)
(0.155031 0.188599 0)
(0.164988 0.200613 0)
(0.175608 0.21356 0)
(0.186951 0.227498 0)
(0.199084 0.242479 0)
(0.21208 0.25856 0)
(0.226015 0.275797 0)
(0.240976 0.294243 0)
(0.257053 0.313952 0)
(0.274347 0.334976 0)
(0.292969 0.357364 0)
(0.313041 0.381164 0)
(0.334698 0.406424 0)
(0.358088 0.433187 0)
(0.383381 0.461491 0)
(0.410766 0.491372 0)
(0.440457 0.522857 0)
(0.472705 0.555969 0)
(0.507792 0.590713 0)
(0.546049 0.627081 0)
(0.587859 0.665042 0)
(0.633672 0.704532 0)
(0.684012 0.745439 0)
(0.739499 0.787582 0)
(0.800864 0.830686 0)
(0.868979 0.874334 0)
(0.944881 0.917912 0)
(1.02979 0.960508 0)
(1.12513 1.00079 0)
(1.23255 1.03679 0)
(1.35376 1.06561 0)
(1.49072 1.08319 0)
(1.64394 1.08243 0)
(1.81455 1.05788 0)
(2.00131 0.991605 0)
(2.17824 0.866033 0)
(2.35962 0.706904 0)
(1.53623e-05 0.000716117 0)
(8.25615e-05 0.00226254 0)
(0.00024206 0.0038636 0)
(0.000498976 0.00544304 0)
(0.000836874 0.00698627 0)
(0.00124517 0.00847505 0)
(0.00173785 0.00986679 0)
(0.00231649 0.0111301 0)
(0.00296773 0.0122414 0)
(0.00367792 0.0131831 0)
(0.00443783 0.0139421 0)
(0.00524034 0.0145083 0)
(0.00607723 0.014882 0)
(0.00693783 0.0150721 0)
(0.00781111 0.0150914 0)
(0.00868688 0.0149562 0)
(0.00955641 0.0146892 0)
(0.0104122 0.0143188 0)
(0.011248 0.013878 0)
(0.0120596 0.0134031 0)
(0.0128447 0.0129322 0)
(0.0136033 0.0125038 0)
(0.0143376 0.0121553 0)
(0.0150518 0.0119224 0)
(0.015752 0.0118383 0)
(0.0164471 0.0119331 0)
(0.0171451 0.0122329 0)
(0.0178663 0.0127608 0)
(0.018602 0.0135329 0)
(0.019397 0.0145646 0)
(0.0202573 0.0158666 0)
(0.0211797 0.0174405 0)
(0.0222178 0.0192896 0)
(0.0233448 0.0214035 0)
(0.024627 0.0237811 0)
(0.026031 0.0264014 0)
(0.0276143 0.0292574 0)
(0.0293669 0.0323267 0)
(0.0313011 0.0355901 0)
(0.0334584 0.0390375 0)
(0.0357938 0.0426337 0)
(0.0383856 0.0463838 0)
(0.0411746 0.0502509 0)
(0.0442164 0.0542385 0)
(0.0474895 0.0583299 0)
(0.051015 0.0625231 0)
(0.0547719 0.0668079 0)
(0.0588179 0.071212 0)
(0.0630793 0.0757048 0)
(0.0676478 0.0803463 0)
(0.0724662 0.0851219 0)
(0.0775676 0.0900725 0)
(0.0829794 0.0952425 0)
(0.0886481 0.100619 0)
(0.0946899 0.106355 0)
(0.101026 0.112372 0)
(0.107737 0.118769 0)
(0.114838 0.125594 0)
(0.122345 0.132898 0)
(0.130288 0.140743 0)
(0.138683 0.149212 0)
(0.147584 0.158257 0)
(0.157047 0.168017 0)
(0.167098 0.178568 0)
(0.177796 0.189938 0)
(0.189203 0.202173 0)
(0.201376 0.215329 0)
(0.214382 0.229457 0)
(0.228301 0.244608 0)
(0.243213 0.260834 0)
(0.259206 0.27818 0)
(0.276372 0.296693 0)
(0.294816 0.316414 0)
(0.314647 0.337382 0)
(0.335989 0.359634 0)
(0.358972 0.383204 0)
(0.383744 0.40812 0)
(0.410467 0.434402 0)
(0.439323 0.462062 0)
(0.470517 0.4911 0)
(0.504281 0.521505 0)
(0.540881 0.553247 0)
(0.580618 0.586269 0)
(0.623839 0.620489 0)
(0.670939 0.655779 0)
(0.722373 0.691953 0)
(0.778659 0.728742 0)
(0.840391 0.765765 0)
(0.90825 0.802488 0)
(0.983002 0.838163 0)
(1.06549 0.871749 0)
(1.15661 0.901804 0)
(1.25726 0.926328 0)
(1.36815 0.94258 0)
(1.48971 0.946906 0)
(1.62128 0.934071 0)
(1.76082 0.898232 0)
(1.90475 0.831579 0)
(2.0416 0.723145 0)
(2.14964 0.574396 0)
(1.85635e-05 0.000674575 0)
(9.13612e-05 0.00213046 0)
(0.000256436 0.00364654 0)
(0.000539617 0.00511981 0)
(0.000852887 0.00666121 0)
(0.00133514 0.00799558 0)
(0.00187005 0.00928788 0)
(0.00248176 0.0104765 0)
(0.00316986 0.0115277 0)
(0.00392825 0.012417 0)
(0.00474361 0.0131309 0)
(0.00560448 0.0136636 0)
(0.00650335 0.0140102 0)
(0.00742864 0.0141812 0)
(0.0083656 0.014191 0)
(0.00930248 0.0140559 0)
(0.0102309 0.0137982 0)
(0.011144 0.0134454 0)
(0.0120355 0.0130284 0)
(0.0129015 0.0125802 0)
(0.0137401 0.0121362 0)
(0.014551 0.0117329 0)
(0.0153357 0.0114059 0)
(0.0160985 0.0111894 0)
(0.0168461 0.0111145 0)
(0.0175879 0.0112094 0)
(0.0183333 0.0114981 0)
(0.0191004 0.0120027 0)
(0.0198894 0.0127364 0)
(0.0207296 0.0137105 0)
(0.0216534 0.0149407 0)
(0.0226362 0.0164254 0)
(0.0237342 0.0181675 0)
(0.0249492 0.0201584 0)
(0.0262934 0.0223907 0)
(0.0278177 0.0248569 0)
(0.0294756 0.0275321 0)
(0.0313739 0.0304191 0)
(0.0334169 0.0334747 0)
(0.0357311 0.036712 0)
(0.0382282 0.040085 0)
(0.0409847 0.0435994 0)
(0.0439856 0.0472338 0)
(0.0472148 0.0509685 0)
(0.0507386 0.0548185 0)
(0.054474 0.0587423 0)
(0.0585364 0.0627899 0)
(0.0627947 0.0668913 0)
(0.0674217 0.0711575 0)
(0.0722369 0.0754747 0)
(0.0774261 0.0799939 0)
(0.0828719 0.0846414 0)
(0.0886237 0.0894732 0)
(0.0947561 0.0946081 0)
(0.101161 0.0999514 0)
(0.107939 0.105605 0)
(0.115118 0.111617 0)
(0.122707 0.11803 0)
(0.130733 0.124892 0)
(0.139251 0.132248 0)
(0.148179 0.140122 0)
(0.157617 0.1487 0)
(0.167743 0.157929 0)
(0.178492 0.167839 0)
(0.189887 0.178513 0)
(0.202017 0.189997 0)
(0.214953 0.202334 0)
(0.228764 0.215567 0)
(0.243532 0.229743 0)
(0.259342 0.244906 0)
(0.27628 0.2611 0)
(0.29444 0.278361 0)
(0.313926 0.296724 0)
(0.334849 0.316219 0)
(0.35733 0.336872 0)
(0.381498 0.358704 0)
(0.407492 0.38173 0)
(0.435466 0.405955 0)
(0.46559 0.43137 0)
(0.49805 0.457954 0)
(0.533063 0.485666 0)
(0.570866 0.514444 0)
(0.611728 0.544198 0)
(0.655954 0.574803 0)
(0.70388 0.606088 0)
(0.755879 0.637815 0)
(0.812362 0.669658 0)
(0.873782 0.701177 0)
(0.940626 0.731783 0)
(1.0134 0.760683 0)
(1.09262 0.786822 0)
(1.17872 0.808804 0)
(1.27201 0.824797 0)
(1.3725 0.832423 0)
(1.47968 0.828699 0)
(1.59209 0.809864 0)
(1.70686 0.77163 0)
(1.81882 0.709523 0)
(1.92128 0.61902 0)
(1.99612 0.498865 0)
(1.96257e-05 0.000620351 0)
(9.23462e-05 0.0020184 0)
(0.00026858 0.00342529 0)
(0.000542229 0.00483894 0)
(0.000932478 0.00619038 0)
(0.00139936 0.00750637 0)
(0.00197802 0.00870618 0)
(0.00261053 0.00982821 0)
(0.00335901 0.010785 0)
(0.00417073 0.0116009 0)
(0.0050338 0.012261 0)
(0.00598793 0.0127289 0)
(0.00694115 0.0130514 0)
(0.00791685 0.0132137 0)
(0.00890568 0.0132242 0)
(0.00989582 0.0130953 0)
(0.0108792 0.0128492 0)
(0.011847 0.0125137 0)
(0.0127914 0.0121188 0)
(0.0137077 0.0116976 0)
(0.0145942 0.0112838 0)
(0.0154509 0.0109102 0)
(0.0162797 0.0106095 0)
(0.0170847 0.0104132 0)
(0.0178731 0.0103502 0)
(0.0186544 0.0104468 0)
(0.0194414 0.0107248 0)
(0.0202447 0.0112042 0)
(0.0210951 0.0118972 0)
(0.0219638 0.0128125 0)
(0.0229373 0.0139652 0)
(0.0239847 0.015356 0)
(0.0251348 0.0169823 0)
(0.0264303 0.0188412 0)
(0.0278429 0.020919 0)
(0.0294643 0.0232172 0)
(0.0312172 0.0257041 0)
(0.0332265 0.0283889 0)
(0.035401 0.03123 0)
(0.0378412 0.034235 0)
(0.0405075 0.0373742 0)
(0.0434154 0.0406347 0)
(0.046613 0.0440188 0)
(0.0500308 0.0474883 0)
(0.0537738 0.0510745 0)
(0.0577329 0.054724 0)
(0.062041 0.0584977 0)
(0.0665563 0.0623145 0)
(0.0714534 0.0662885 0)
(0.0765694 0.0703148 0)
(0.082056 0.0745181 0)
(0.0878397 0.0788571 0)
(0.0939318 0.0833552 0)
(0.100428 0.0881432 0)
(0.107233 0.0931344 0)
(0.11443 0.0984097 0)
(0.122043 0.104016 0)
(0.130086 0.109997 0)
(0.138575 0.116399 0)
(0.147518 0.123263 0)
(0.157068 0.130611 0)
(0.16721 0.13862 0)
(0.177847 0.147233 0)
(0.189141 0.156475 0)
(0.201179 0.166424 0)
(0.213987 0.177121 0)
(0.227626 0.188598 0)
(0.242177 0.200894 0)
(0.257726 0.21405 0)
(0.274356 0.228109 0)
(0.292156 0.243105 0)
(0.311219 0.259069 0)
(0.331647 0.276026 0)
(0.353549 0.294001 0)
(0.377044 0.313014 0)
(0.402256 0.333077 0)
(0.429317 0.354193 0)
(0.458369 0.376353 0)
(0.489566 0.399531 0)
(0.523078 0.423686 0)
(0.559097 0.448754 0)
(0.597831 0.474647 0)
(0.639516 0.501246 0)
(0.684409 0.528402 0)
(0.732785 0.555918 0)
(0.784934 0.583532 0)
(0.841162 0.610889 0)
(0.901786 0.63753 0)
(0.96712 0.662858 0)
(1.03745 0.6861 0)
(1.113 0.706267 0)
(1.19386 0.722102 0)
(1.27994 0.732037 0)
(1.37076 0.734149 0)
(1.46532 0.726167 0)
(1.56178 0.705502 0)
(1.65717 0.66946 0)
(1.74664 0.615568 0)
(1.82465 0.542535 0)
(1.88033 0.450926 0)
(1.81354e-05 0.000577397 0)
(9.66772e-05 0.00186623 0)
(0.000280105 0.00319335 0)
(0.000584544 0.00448119 0)
(0.000982224 0.00576132 0)
(0.00148778 0.00696328 0)
(0.00208742 0.00808143 0)
(0.00277189 0.00910034 0)
(0.00356195 0.00997942 0)
(0.00439761 0.0107413 0)
(0.00533971 0.0113234 0)
(0.00628317 0.0117786 0)
(0.00731091 0.012059 0)
(0.00832461 0.0122094 0)
(0.00938488 0.0122059 0)
(0.0104346 0.0120788 0)
(0.0114667 0.0118494 0)
(0.0124828 0.0115386 0)
(0.0134764 0.0111697 0)
(0.0144427 0.0107754 0)
(0.0153774 0.0103903 0)
(0.0162791 0.0100459 0)
(0.0171506 0.0097717 0)
(0.0179976 0.00959577 0)
(0.0188278 0.00954446 0)
(0.0196507 0.0096414 0)
(0.0204794 0.00990696 0)
(0.0213241 0.0103577 0)
(0.0222155 0.011008 0)
(0.0231296 0.0118613 0)
(0.0241516 0.0129299 0)
(0.0252535 0.0142211 0)
(0.026458 0.0157267 0)
(0.0278159 0.0174449 0)
(0.0293012 0.0193618 0)
(0.0309972 0.0214796 0)
(0.0328495 0.0237708 0)
(0.0349468 0.0262383 0)
(0.0372504 0.0288552 0)
(0.0398037 0.0316143 0)
(0.0426169 0.0345035 0)
(0.0456821 0.0375034 0)
(0.0490332 0.0406126 0)
(0.0526552 0.0438161 0)
(0.0565718 0.0471126 0)
(0.0607568 0.0504843 0)
(0.0652804 0.053966 0)
(0.0700304 0.0574818 0)
(0.0751843 0.0611557 0)
(0.0805651 0.0648641 0)
(0.0863394 0.0687453 0)
(0.0924288 0.0727499 0)
(0.098844 0.0768975 0)
(0.105684 0.0813222 0)
(0.112857 0.0859298 0)
(0.120443 0.0907962 0)
(0.128465 0.0959706 0)
(0.136939 0.1015 0)
(0.145886 0.107429 0)
(0.155339 0.1138 0)
(0.165356 0.120681 0)
(0.175958 0.12801 0)
(0.187171 0.135922 0)
(0.19907 0.144475 0)
(0.211701 0.153679 0)
(0.225113 0.163561 0)
(0.239382 0.17415 0)
(0.254596 0.185472 0)
(0.270848 0.197569 0)
(0.288221 0.210488 0)
(0.306797 0.224257 0)
(0.326667 0.238896 0)
(0.347936 0.25442 0)
(0.370713 0.270845 0)
(0.395112 0.288185 0)
(0.421247 0.306449 0)
(0.449239 0.325634 0)
(0.479215 0.345723 0)
(0.511312 0.36668 0)
(0.545678 0.388448 0)
(0.582482 0.410943 0)
(0.621898 0.434057 0)
(0.664134 0.457652 0)
(0.709408 0.481564 0)
(0.757936 0.505588 0)
(0.809926 0.52945 0)
(0.865585 0.552801 0)
(0.925108 0.575192 0)
(0.98866 0.59606 0)
(1.05634 0.614697 0)
(1.12817 0.630225 0)
(1.20398 0.641569 0)
(1.28342 0.64745 0)
(1.36575 0.646393 0)
(1.44978 0.636778 0)
(1.5336 0.616932 0)
(1.61449 0.585362 0)
(1.68848 0.541001 0)
(1.75095 0.484008 0)
(1.79513 0.416005 0)
(1.88896e-05 0.000528211 0)
(0.000100383 0.00172231 0)
(0.00029683 0.00293739 0)
(0.000613822 0.00413069 0)
(0.00103438 0.00529713 0)
(0.00156446 0.00639853 0)
(0.00219131 0.00742409 0)
(0.00291919 0.00834614 0)
(0.00373207 0.00915415 0)
(0.00461978 0.00983203 0)
(0.00558602 0.0103646 0)
(0.0065799 0.0107686 0)
(0.00764917 0.0110146 0)
(0.00870503 0.0111438 0)
(0.00981075 0.0111292 0)
(0.0109052 0.0110071 0)
(0.0119769 0.0107964 0)
(0.0130676 0.0105 0)
(0.0140973 0.0101637 0)
(0.0151061 0.0098029 0)
(0.0160858 0.00945068 0)
(0.0170318 0.00913818 0)
(0.017947 0.0088923 0)
(0.0188381 0.00873797 0)
(0.0197127 0.00869914 0)
(0.0205794 0.0087977 0)
(0.0214506 0.00905229 0)
(0.0223374 0.00947667 0)
(0.0232649 0.0100845 0)
(0.0242415 0.0108783 0)
(0.0252733 0.0118616 0)
(0.0264312 0.0130459 0)
(0.0276916 0.014425 0)
(0.0290998 0.0159949 0)
(0.0306565 0.0177443 0)
(0.0324136 0.0196705 0)
(0.0343566 0.0217558 0)
(0.036535 0.0239948 0)
(0.0389437 0.0263709 0)
(0.0416142 0.0288764 0)
(0.0445405 0.0314941 0)
(0.0477638 0.0342255 0)
(0.0512467 0.0370419 0)
(0.0550542 0.0399637 0)
(0.0591377 0.0429601 0)
(0.0635214 0.0460365 0)
(0.0682468 0.049215 0)
(0.0732092 0.052413 0)
(0.0785927 0.0557625 0)
(0.0842225 0.0591408 0)
(0.0902562 0.0626791 0)
(0.0966258 0.0663324 0)
(0.103339 0.0701187 0)
(0.110493 0.0741598 0)
(0.118005 0.078366 0)
(0.125952 0.0828056 0)
(0.134361 0.0875253 0)
(0.143243 0.0925788 0)
(0.152615 0.0980089 0)
(0.162509 0.103845 0)
(0.172976 0.110122 0)
(0.184055 0.116869 0)
(0.195787 0.124143 0)
(0.20821 0.131979 0)
(0.221382 0.140408 0)
(0.235355 0.149463 0)
(0.250193 0.159139 0)
(0.266002 0.169442 0)
(0.282891 0.180433 0)
(0.300939 0.192168 0)
(0.320213 0.204668 0)
(0.340798 0.217941 0)
(0.3628 0.232 0)
(0.386331 0.246859 0)
(0.411505 0.262527 0)
(0.438434 0.279007 0)
(0.467227 0.296287 0)
(0.497991 0.314345 0)
(0.530842 0.333134 0)
(0.565902 0.352586 0)
(0.603306 0.372601 0)
(0.643208 0.393048 0)
(0.685788 0.413778 0)
(0.731228 0.434643 0)
(0.77969 0.455447 0)
(0.831309 0.475918 0)
(0.886208 0.495711 0)
(0.944486 0.514411 0)
(1.00618 0.531517 0)
(1.07127 0.546418 0)
(1.13957 0.55837 0)
(1.21079 0.566495 0)
(1.2844 0.56979 0)
(1.35959 0.567171 0)
(1.43513 0.557546 0)
(1.50929 0.539929 0)
(1.57969 0.513635 0)
(1.64325 0.478491 0)
(1.69635 0.435348 0)
(1.73474 0.386248 0)
(1.94845e-05 0.000478679 0)
(0.000104175 0.00156736 0)
(0.000309337 0.00267346 0)
(0.000637803 0.00375795 0)
(0.00107762 0.00481066 0)
(0.00162962 0.00580548 0)
(0.00228202 0.00673155 0)
(0.00304359 0.00755757 0)
(0.00388291 0.00828518 0)
(0.00481519 0.00888432 0)
(0.00580322 0.00936556 0)
(0.00685184 0.00971486 0)
(0.00794434 0.00993585 0)
(0.00904901 0.0100401 0)
(0.0101977 0.0100168 0)
(0.011312 0.00990482 0)
(0.012463 0.00969383 0)
(0.0135538 0.00942803 0)
(0.014659 0.00911225 0)
(0.0157036 0.00878762 0)
(0.0167279 0.00846774 0)
(0.017722 0.0081839 0)
(0.018684 0.00796347 0)
(0.0196191 0.00782964 0)
(0.0205358 0.00780359 0)
(0.0214436 0.00790451 0)
(0.0223534 0.00814788 0)
(0.0232804 0.0085446 0)
(0.024239 0.00910559 0)
(0.0252647 0.00983752 0)
(0.0263326 0.0107369 0)
(0.0275275 0.0118102 0)
(0.0288307 0.0130578 0)
(0.0302839 0.0144744 0)
(0.0318916 0.0160488 0)
(0.0337098 0.0177784 0)
(0.0357156 0.0196462 0)
(0.0379783 0.0216524 0)
(0.0404635 0.0237737 0)
(0.0432474 0.0260185 0)
(0.0462725 0.028352 0)
(0.049631 0.0307992 0)
(0.0532504 0.033318 0)
(0.0572031 0.035935 0)
(0.0614708 0.038638 0)
(0.0660039 0.0413957 0)
(0.0709346 0.0442833 0)
(0.0760658 0.0471454 0)
(0.0816598 0.0501619 0)
(0.0875167 0.0531902 0)
(0.0937894 0.0563641 0)
(0.100419 0.0596449 0)
(0.107405 0.0630379 0)
(0.114847 0.0666666 0)
(0.122667 0.0704544 0)
(0.13094 0.0744571 0)
(0.139703 0.0787119 0)
(0.148973 0.083269 0)
(0.158747 0.0881665 0)
(0.169052 0.0934293 0)
(0.179944 0.0990955 0)
(0.191471 0.105203 0)
(0.203669 0.111783 0)
(0.216586 0.118881 0)
(0.230269 0.126534 0)
(0.244735 0.13476 0)
(0.260039 0.143509 0)
(0.276343 0.152785 0)
(0.293796 0.16267 0)
(0.312448 0.173219 0)
(0.332338 0.184437 0)
(0.353555 0.196323 0)
(0.376214 0.208879 0)
(0.400427 0.222115 0)
(0.426296 0.236046 0)
(0.453921 0.250686 0)
(0.483399 0.266034 0)
(0.514823 0.282069 0)
(0.548286 0.298739 0)
(0.583881 0.315967 0)
(0.621707 0.333637 0)
(0.661896 0.351565 0)
(0.704633 0.369585 0)
(0.750088 0.38759 0)
(0.798345 0.405435 0)
(0.849457 0.42287 0)
(0.903479 0.439572 0)
(0.960445 0.455168 0)
(1.02031 0.469226 0)
(1.08294 0.481233 0)
(1.14805 0.490574 0)
(1.21525 0.496542 0)
(1.28392 0.498378 0)
(1.35327 0.495316 0)
(1.42217 0.486671 0)
(1.48912 0.47196 0)
(1.55219 0.451017 0)
(1.609 0.424147 0)
(1.65692 0.392458 0)
(1.69313 0.358064 0)
(2.01544e-05 0.000427836 0)
(0.000107876 0.0014071 0)
(0.000319932 0.00239938 0)
(0.000657078 0.00337222 0)
(0.00111759 0.00430326 0)
(0.00168331 0.00519317 0)
(0.0023676 0.00600773 0)
(0.00314442 0.006747 0)
(0.00402366 0.0073804 0)
(0.00497464 0.00791174 0)
(0.0060014 0.00832626 0)
(0.00708328 0.00862684 0)
(0.00820222 0.00881471 0)
(0.00935893 0.0088874 0)
(0.0105147 0.00886394 0)
(0.0116997 0.00874215 0)
(0.0128475 0.00855572 0)
(0.0140173 0.00830281 0)
(0.0151238 0.00802342 0)
(0.0162415 0.00772322 0)
(0.0172984 0.00743828 0)
(0.0183357 0.00718629 0)
(0.0193437 0.00699371 0)
(0.0203236 0.00688315 0)
(0.0212832 0.00687383 0)
(0.0222315 0.00698302 0)
(0.0231788 0.00722147 0)
(0.0241413 0.00759603 0)
(0.025135 0.00811371 0)
(0.0261939 0.00878352 0)
(0.0272939 0.00959886 0)
(0.0285266 0.0105609 0)
(0.0298671 0.0116743 0)
(0.0313612 0.0129342 0)
(0.033008 0.014328 0)
(0.0348789 0.0158537 0)
(0.0369355 0.0174931 0)
(0.0392695 0.019253 0)
(0.0418229 0.0211078 0)
(0.0446972 0.0230756 0)
(0.0478198 0.0251164 0)
(0.0512821 0.0272538 0)
(0.0550442 0.0294655 0)
(0.0591148 0.0317491 0)
(0.06356 0.0341461 0)
(0.0682453 0.0365786 0)
(0.0733383 0.0391416 0)
(0.0786265 0.0416603 0)
(0.0843841 0.0443245 0)
(0.0904409 0.0470063 0)
(0.0969213 0.0498081 0)
(0.103772 0.0527081 0)
(0.111031 0.0557369 0)
(0.1187 0.0588897 0)
(0.126822 0.0621967 0)
(0.135414 0.0657069 0)