/*--------------------------------*- C++ -*----------------------------------*\
| =========                 |                                                 |
| \\      /  F ield         | OpenFOAM: The Open Source CFD Toolbox           |
|  \\    /   O peration     | Version:  2206                                  |
|   \\  /    A nd           | Website:  www.openfoam.com                      |
|    \\/     M anipulation  |                                                 |
\*---------------------------------------------------------------------------*/
FoamFile
{
    version     2.0;
    format      ascii;
    arch        "LSB;label=32;scalar=64";
    class       volScalarField;
    location    "18.6";
    object      p;
}
// * * * * * * * * * * * * * * * * * * * * * * * * * * * * * * * * * * * * * //

dimensions      [0 2 -2 0 0 0 0];

internalField   nonuniform List<scalar> 
3050
(
-1.69182
-1.62532
-1.55964
-1.40425
-1.15806
-0.871615
-0.58635
-0.32988
-0.129542
0.0022192
0.0836702
0.139168
0.143945
0.131227
0.0973846
0.0390713
-0.0490375
-0.171327
-0.325029
-0.503188
-0.684777
-0.838149
-0.940051
-0.982904
-0.971624
-0.921359
-0.848309
-0.764669
-0.678731
-0.601652
-0.539863
-0.48976
-0.450024
-0.419695
-0.397331
-0.381794
-0.371994
-0.367378
-0.367517
-0.372219
-0.381712
-0.39608
-0.414468
-0.434993
-0.456268
-0.471252
-0.478445
-0.480556
-0.475406
-0.4632
-0.446663
-0.427921
-0.408896
-0.391242
-0.37621
-0.364628
-0.357019
-0.353836
-0.356073
-0.365545
-0.380698
-0.398973
-0.424969
-0.454666
-0.484981
-0.512618
-0.533806
-0.545313
-0.546374
-0.536202
-0.516076
-0.488137
-0.454816
-0.418683
-0.381834
-0.344961
-0.309863
-0.280487
-0.256621
-0.237446
-0.223105
-0.213523
-0.208446
-0.207518
-0.210237
-0.215928
-0.223688
-0.232432
-0.240977
-0.248154
-0.252988
-0.254782
-0.253322
-0.248526
-0.240696
-0.230438
-1.52561
-1.57091
-1.55599
-1.44811
-1.25047
-0.996985
-0.748417
-0.54389
-0.388533
-0.273533
-0.195351
-0.153295
-0.114693
-0.100876
-0.107762
-0.136518
-0.19158
-0.280287
-0.402082
-0.549871
-0.713844
-0.865202
-0.973213
-1.02643
-1.02309
-0.975299
-0.900525
-0.813617
-0.724759
-0.639723
-0.566924
-0.511128
-0.468262
-0.435919
-0.412893
-0.397687
-0.389171
-0.386804
-0.390099
-0.399032
-0.413888
-0.434294
-0.458728
-0.484739
-0.50879
-0.525861
-0.533709
-0.533265
-0.524098
-0.507751
-0.486798
-0.463689
-0.440652
-0.419437
-0.401357
-0.387254
-0.377445
-0.37212
-0.372133
-0.379252
-0.392802
-0.410101
-0.434681
-0.463135
-0.492558
-0.51973
-0.540994
-0.553094
-0.555007
-0.545936
-0.526961
-0.500103
-0.467723
-0.432368
-0.396412
-0.361265
-0.327072
-0.296947
-0.273011
-0.254057
-0.239869
-0.230492
-0.225698
-0.225137
-0.228343
-0.234642
-0.243107
-0.252592
-0.2618
-0.269478
-0.274583
-0.276334
-0.274517
-0.269033
-0.260258
-0.24886
-1.35783
-1.39424
-1.40769
-1.3601
-1.25035
-1.09797
-0.947571
-0.816843
-0.704075
-0.605201
-0.523137
-0.455371
-0.391876
-0.345015
-0.318837
-0.315638
-0.337107
-0.387742
-0.472222
-0.58182
-0.713297
-0.85004
-0.957634
-1.01746
-1.02599
-0.98803
-0.919059
-0.834593
-0.746574
-0.662823
-0.587512
-0.526514
-0.481933
-0.449138
-0.426207
-0.41224
-0.405977
-0.406608
-0.413846
-0.427846
-0.448785
-0.475801
-0.50688
-0.538537
-0.565697
-0.583725
-0.590471
-0.587066
-0.573303
-0.551797
-0.525497
-0.49721
-0.469433
-0.444021
-0.422336
-0.405159
-0.392629
-0.384617
-0.38196
-0.385784
-0.396619
-0.415053
-0.437132
-0.463373
-0.491263
-0.517404
-0.53831
-0.550854
-0.553527
-0.545856
-0.528574
-0.50352
-0.472936
-0.439249
-0.404788
-0.371419
-0.33977
-0.310323
-0.286267
-0.267921
-0.254314
-0.245503
-0.241313
-0.241386
-0.245311
-0.252441
-0.261812
-0.272168
-0.282104
-0.290319
-0.295657
-0.297265
-0.29494
-0.288585
-0.278671
-0.265928
-1.15159
-1.18769
-1.21503
-1.21527
-1.19155
-1.15405
-1.11508
-1.0778
-1.03262
-0.963223
-0.87115
-0.764439
-0.658873
-0.568205
-0.500419
-0.459915
-0.447912
-0.463838
-0.511306
-0.586305
-0.682374
-0.794944
-0.895899
-0.958855
-0.978438
-0.955317
-0.89897
-0.823666
-0.741842
-0.662775
-0.592655
-0.533464
-0.48825
-0.456876
-0.43575
-0.423947
-0.420669
-0.425043
-0.436938
-0.456788
-0.484489
-0.518844
-0.557098
-0.593873
-0.623587
-0.641968
-0.647006
-0.639502
-0.620359
-0.592935
-0.560602
-0.526565
-0.493559
-0.463561
-0.437979
-0.417411
-0.40142
-0.390854
-0.386031
-0.387269
-0.395523
-0.412107
-0.431825
-0.455682
-0.481588
-0.506272
-0.526461
-0.539199
-0.542574
-0.536518
-0.521322
-0.498594
-0.470431
-0.439107
-0.406818
-0.375467
-0.346337
-0.319529
-0.296123
-0.278266
-0.265581
-0.257773
-0.254521
-0.255483
-0.26037
-0.268569
-0.279016
-0.290311
-0.301036
-0.309807
-0.315335
-0.316696
-0.313724
-0.306353
-0.295105
-0.280842
-0.980086
-1.00724
-1.04666
-1.08691
-1.13147
-1.20223
-1.28263
-1.34937
-1.36452
-1.31062
-1.19754
-1.04967
-0.895814
-0.757874
-0.646126
-0.564376
-0.516553
-0.502911
-0.516507
-0.564951
-0.634689
-0.710752
-0.794393
-0.861402
-0.888867
-0.881113
-0.841256
-0.780856
-0.711196
-0.641854
-0.579596
-0.527287
-0.485654
-0.456671
-0.439309
-0.43099
-0.431585
-0.440443
-0.457598
-0.483722
-0.518889
-0.561126
-0.605869
-0.647184
-0.679295
-0.697197
-0.699855
-0.687422
-0.662314
-0.628507
-0.589842
-0.549921
-0.511604
-0.476966
-0.447109
-0.423021
-0.403973
-0.391136
-0.384493
-0.383646
-0.389239
-0.401767
-0.419431
-0.44104
-0.46466
-0.48757
-0.506726
-0.519338
-0.523455
-0.51902
-0.506079
-0.486013
-0.460722
-0.432283
-0.40276
-0.373908
-0.347104
-0.323206
-0.302216
-0.285092
-0.272956
-0.266586
-0.264642
-0.266679
-0.27278
-0.282245
-0.293797
-0.306072
-0.317642
-0.326959
-0.332622
-0.333642
-0.329918
-0.321409
-0.30872
-0.292836
-0.305202
-0.318517
-0.330912
-0.340713
-0.346436
-0.347066
-0.342519
-0.332812
-0.318676
-0.301175
-0.801522
-0.796986
-0.791465
-0.785359
-0.779111
-0.773207
-0.768158
-0.764476
-0.762589
-0.762646
-0.764902
-0.767661
-0.768095
-0.765304
-0.759662
-0.751805
-0.742244
-0.731381
-0.719537
-0.706952
-0.693799
-0.680191
-0.666186
-0.651791
-0.636997
-0.621825
-0.606354
-0.59077
-0.57537
-0.560358
-0.545883
-0.531947
-0.8065
-0.802208
-0.796949
-0.791089
-0.785039
-0.779237
-0.774122
-0.770281
-0.768081
-0.767498
-0.767913
-0.768022
-0.766623
-0.76294
-0.756889
-0.748862
-0.739301
-0.728563
-0.716933
-0.704641
-0.691821
-0.678521
-0.664755
-0.650473
-0.635577
-0.620121
-0.604249
-0.588178
-0.57239
-0.557469
-0.543531
-0.530375
-0.819417
-0.815935
-0.811497
-0.806372
-0.800864
-0.795308
-0.790062
-0.785469
-0.78173
-0.778777
-0.776244
-0.773588
-0.770165
-0.765328
-0.758865
-0.75093
-0.741727
-0.731461
-0.720316
-0.708436
-0.69594
-0.682899
-0.669322
-0.655174
-0.640403
-0.624991
-0.609181
-0.593366
-0.577851
-0.562852
-0.548397
-0.534425
-0.833659
-0.830873
-0.827115
-0.822556
-0.817399
-0.81187
-0.806261
-0.800735
-0.795478
-0.790515
-0.785695
-0.780728
-0.775216
-0.768782
-0.761278
-0.752762
-0.743368
-0.733236
-0.722472
-0.711152
-0.699338
-0.687093
-0.67439
-0.661142
-0.647302
-0.632899
-0.618108
-0.603139
-0.588128
-0.573186
-0.558389
-0.543743
-0.849869
-0.847693
-0.844518
-0.840406
-0.835445
-0.829747
-0.823517
-0.81693
-0.810128
-0.803218
-0.796211
-0.789023
-0.781503
-0.773524
-0.765028
-0.756026
-0.746602
-0.736822
-0.726698
-0.716326
-0.70571
-0.694662
-0.683106
-0.67106
-0.658472
-0.645265
-0.631479
-0.617224
-0.602543
-0.587451
-0.571961
-0.556035
-0.867001
-0.865405
-0.862779
-0.859056
-0.854205
-0.848243
-0.841297
-0.833567
-0.825166
-0.816285
-0.807103
-0.797739
-0.788242
-0.77867
-0.769093
-0.759513
-0.749991
-0.740547
-0.73101
-0.721556
-0.712269
-0.702624
-0.692397
-0.681716
-0.670523
-0.658666
-0.64606
-0.632687
-0.618505
-0.603432
-0.587383
-0.570268
-0.885324
-0.884365
-0.882349
-0.879051
-0.874292
-0.867977
-0.860148
-0.851029
-0.840816
-0.829822
-0.8184
-0.806848
-0.795398
-0.784242
-0.773531
-0.763341
-0.753688
-0.744541
-0.735802
-0.727363
-0.719101
-0.710767
-0.702145
-0.693126
-0.683546
-0.673201
-0.661918
-0.649557
-0.635973
-0.620995
-0.604458
-0.586189
-0.904582
-0.904443
-0.903232
-0.900519
-0.895926
-0.889221
-0.88035
-0.869568
-0.857208
-0.843762
-0.829802
-0.81583
-0.802266
-0.789439
-0.777573
-0.76678
-0.757066
-0.748333
-0.740435
-0.733101
-0.726108
-0.719349
-0.712544
-0.705374
-0.697575
-0.688902
-0.679108
-0.667941
-0.655147
-0.640458
-0.623613
-0.604385
-0.924721
-0.925811
-0.925829
-0.924049
-0.919829
-0.912768
-0.9027
-0.88987
-0.874828
-0.858359
-0.841328
-0.824483
-0.808446
-0.793689
-0.78051
-0.769041
-0.759265
-0.751039
-0.744183
-0.738319
-0.73298
-0.728056
-0.723286
-0.718222
-0.712487
-0.705772
-0.697756
-0.688087
-0.676396
-0.662298
-0.645419
-0.625423
-0.945425
-0.948384
-0.950361
-0.95016
-0.946732
-0.939475
-0.928007
-0.91253
-0.894029
-0.873765
-0.852953
-0.832628
-0.813657
-0.796663
-0.782011
-0.76986
-0.760113
-0.752538
-0.746909
-0.742818
-0.739567
-0.73676
-0.734304
-0.731679
-0.72836
-0.723956
-0.71808
-0.710288
-0.700085
-0.686945
-0.67034
-0.649787
-0.96663
-0.972419
-0.977378
-0.979659
-0.977678
-0.970606
-0.957562
-0.938518
-0.915271
-0.890003
-0.864343
-0.839671
-0.817138
-0.797529
-0.781249
-0.768426
-0.75892
-0.752297
-0.748135
-0.746145
-0.745447
-0.745317
-0.745644
-0.745855
-0.745366
-0.743714
-0.740441
-0.735025
-0.726837
-0.715162
-0.699287
-0.678526
-0.987274
-0.997756
-1.00765
-1.01369
-1.01417
-1.0081
-0.99294
-0.969012
-0.939514
-0.907635
-0.875592
-0.845325
-0.818348
-0.795572
-0.777417
-0.763972
-0.754939
-0.749666
-0.747634
-0.748059
-0.750083
-0.753391
-0.757137
-0.760647
-0.763471
-0.765118
-0.765048
-0.762689
-0.757268
-0.747841
-0.733426
-0.71303
-1.00683
-1.02403
-1.0421
-1.05385
-1.05813
-1.05566
-1.03732
-1.00458
-0.966277
-0.925784
-0.8855
-0.848245
-0.81592
-0.78949
-0.769383
-0.755531
-0.747326
-0.74399
-0.744634
-0.748171
-0.753952
-0.761323
-0.768945
-0.776258
-0.782912
-0.78836
-0.792173
-0.793764
-0.791998
-0.785784
-0.773932
-0.754929
-1.02442
-1.05252
-1.08147
-1.10226
-1.11395
-1.11517
-1.09463
-1.05175
-0.999316
-0.945856
-0.89399
-0.847604
-0.808417
-0.777545
-0.755362
-0.7414
-0.734708
-0.734142
-0.738361
-0.745921
-0.756385
-0.768501
-0.780699
-0.792598
-0.804023
-0.813757
-0.821927
-0.828646
-0.831847
-0.830019
-0.821991
-0.805789
-1.03276
-1.07886
-1.12579
-1.16428
-1.18642
-1.18668
-1.1589
-1.1048
-1.03731
-0.966666
-0.899307
-0.842223
-0.795052
-0.759018
-0.734714
-0.721113
-0.716805
-0.720046
-0.729075
-0.742305
-0.758266
-0.775273
-0.792412
-0.809193
-0.825406
-0.840511
-0.854303
-0.866702
-0.876689
-0.881966
-0.880338
-0.869271
-1.04283
-1.10528
-1.1752
-1.2376
-1.27767
-1.28029
-1.24069
-1.16665
-1.07615
-0.982793
-0.897749
-0.827338
-0.771754
-0.730912
-0.705247
-0.69314
-0.692453
-0.70081
-0.715932
-0.735777
-0.758298
-0.781806
-0.805161
-0.827529
-0.848818
-0.869239
-0.888801
-0.907425
-0.924613
-0.938823
-0.947993
-0.947584
-1.02517
-1.10796
-1.20279
-1.28954
-1.35103
-1.36386
-1.31807
-1.22521
-1.11138
-0.9979
-0.896261
-0.809626
-0.74312
-0.69754
-0.67128
-0.661655
-0.665496
-0.679828
-0.701742
-0.728609
-0.758003
-0.788104
-0.817614
-0.84573
-0.872468
-0.898367
-0.924124
-0.950372
-0.977167
-1.00323
-1.02577
-1.03937
-1.03895
-1.12175
-1.21988
-1.31472
-1.38058
-1.39319
-1.34207
-1.24134
-1.11729
-0.992004
-0.87947
-0.785284
-0.713538
-0.665701
-0.639748
-0.632776
-0.640977
-0.660705
-0.688684
-0.721928
-0.757643
-0.79359
-0.828239
-0.860861
-0.891736
-0.921935
-0.953027
-0.986811
-1.02481
-1.06713
-1.11137
-1.15028
-1.04944
-1.12457
-1.2142
-1.30277
-1.36259
-1.37325
-1.32087
-1.22082
-1.09946
-0.974418
-0.861686
-0.768935
-0.699038
-0.652443
-0.628097
-0.623218
-0.633621
-0.655542
-0.685788
-0.721444
-0.759543
-0.797527
-0.834003
-0.868514
-0.901355
-0.933786
-0.968043
-1.00705
-1.05408
-1.11221
-1.18269
-1.25879
-1.06295
-1.1279
-1.20452
-1.2763
-1.31925
-1.31561
-1.27295
-1.18934
-1.07825
-0.96036
-0.853101
-0.764411
-0.697603
-0.652799
-0.629316
-0.625152
-0.635602
-0.657067
-0.686613
-0.721444
-0.758708
-0.796039
-0.832042
-0.866287
-0.899153
-0.932001
-0.967294
-1.0084
-1.05946
-1.12688
-1.21757
-1.34696
-0.518373
-0.504912
-0.491371
-0.477421
-0.46222
-0.444903
-0.424629
-0.401411
-0.375599
-0.347986
-0.320109
-0.293876
-0.270644
-0.252267
-0.24009
-0.236029
-0.243011
-0.260456
-0.289983
-0.332379
-0.383672
-0.438882
-0.489439
-0.526548
-0.544057
-0.540909
-0.521138
-0.4879
-0.446043
-0.401217
-0.358596
-0.322541
-0.296415
-0.282134
-0.280522
-0.29064
-0.311995
-0.343618
-0.38351
-0.427156
-0.467634
-0.496313
-0.504616
-0.488149
-0.450161
-0.395364
-0.331402
-0.26565
-0.204423
-0.152164
-0.111674
-0.084449
-0.070794
-0.067549
-0.0752727
-0.0918358
-0.114468
-0.14002
-0.165278
-0.187439
-0.204519
-0.215496
-0.220836
-0.220792
-0.215904
-0.207269
-0.196129
-0.183713
-0.171136
-0.15935
-0.149145
-0.141104
-0.135568
-0.132628
-0.131739
-0.132696
-0.134943
-0.137812
-0.140583
-0.142463
-0.142736
-0.140909
-0.137052
-0.130935
-0.122879
-0.113467
-0.103362
-0.0932472
-0.08362
-0.0749198
-0.0673917
-0.0611581
-0.0562208
-0.0524565
-0.0496628
-0.0474322
-0.517499
-0.504411
-0.49152
-0.478456
-0.464251
-0.448033
-0.429026
-0.406687
-0.381606
-0.352695
-0.322058
-0.292944
-0.267654
-0.247412
-0.232773
-0.225213
-0.229833
-0.247495
-0.279371
-0.326308
-0.384003
-0.446377
-0.503943
-0.54616
-0.565206
-0.560862
-0.539997
-0.502957
-0.455838
-0.405323
-0.357282
-0.316404
-0.286518
-0.269806
-0.267225
-0.277964
-0.302232
-0.338259
-0.383617
-0.433846
-0.481629
-0.517549
-0.529876
-0.513769
-0.474007
-0.413401
-0.342226
-0.269235
-0.201503
-0.144255
-0.100516
-0.0715605
-0.0572334
-0.0561078
-0.0664774
-0.0860979
-0.111894
-0.140444
-0.168247
-0.192268
-0.210548
-0.222252
-0.227718
-0.226772
-0.220753
-0.210901
-0.198531
-0.18494
-0.171273
-0.158509
-0.147519
-0.138961
-0.133168
-0.130138
-0.129785
-0.131319
-0.134206
-0.137767
-0.141312
-0.143903
-0.144683
-0.143616
-0.1397
-0.133204
-0.124598
-0.114601
-0.103816
-0.0932216
-0.0831975
-0.0741913
-0.0664778
-0.0601778
-0.055275
-0.0516289
-0.0489767
-0.0471092
-0.520756
-0.507237
-0.493671
-0.479711
-0.465003
-0.448572
-0.429134
-0.405379
-0.376446
-0.344765
-0.312719
-0.283759
-0.258742
-0.237733
-0.221589
-0.212326
-0.211785
-0.228304
-0.263979
-0.319094
-0.389054
-0.466022
-0.535998
-0.586663
-0.608641
-0.602516
-0.57201
-0.52512
-0.468627
-0.408905
-0.352103
-0.302991
-0.266385
-0.245261
-0.241476
-0.255334
-0.28653
-0.331992
-0.388725
-0.451699
-0.513532
-0.561231
-0.581272
-0.565489
-0.5165
-0.443071
-0.35883
-0.274245
-0.196234
-0.130019
-0.0804447
-0.0489366
-0.0355261
-0.0367071
-0.0516078
-0.0768862
-0.108425
-0.142276
-0.174587
-0.201732
-0.221343
-0.232933
-0.237548
-0.235663
-0.228233
-0.216599
-0.202269
-0.186768
-0.171377
-0.157076
-0.144869
-0.135514
-0.129386
-0.126522
-0.126695
-0.129148
-0.13313
-0.137875
-0.142679
-0.146469
-0.148315
-0.147363
-0.143368
-0.136385
-0.126976
-0.116025
-0.104429
-0.0930295
-0.0823956
-0.0729666
-0.0650236
-0.0586852
-0.0539135
-0.0505313
-0.0482556
-0.0467587
-0.529149
-0.514435
-0.499409
-0.483707
-0.466681
-0.447425
-0.425061
-0.399251
-0.370475
-0.340124
-0.309186
-0.278329
-0.247397
-0.217386
-0.19269
-0.179711
-0.182543
-0.20533
-0.250463
-0.3178
-0.401898
-0.492572
-0.574412
-0.63107
-0.651417
-0.636227
-0.598348
-0.542578
-0.476662
-0.407458
-0.341736
-0.285469
-0.24306
-0.217662
-0.212675
-0.230506
-0.270343
-0.327377
-0.396507
-0.473645
-0.551424
-0.612111
-0.639488
-0.621926
-0.559427
-0.470538
-0.372953
-0.277464
-0.189723
-0.115951
-0.0610864
-0.0261246
-0.00970445
-0.0145878
-0.034623
-0.065627
-0.102552
-0.141108
-0.178299
-0.208852
-0.230454
-0.243107
-0.247688
-0.245432
-0.237194
-0.224357
-0.208396
-0.191131
-0.173603
-0.156833
-0.142704
-0.13228
-0.125816
-0.123223
-0.124192
-0.127379
-0.132255
-0.137969
-0.143893
-0.148646
-0.151265
-0.150751
-0.146714
-0.139243
-0.129068
-0.117291
-0.104997
-0.093052
-0.0820705
-0.0724463
-0.0644125
-0.0580613
-0.0533309
-0.0500371
-0.047909
-0.0465858
-0.539575
-0.52243
-0.504434
-0.485319
-0.464693
-0.442129
-0.417309
-0.390203
-0.36109
-0.330581
-0.299536
-0.269073
-0.240539
-0.215696
-0.196695
-0.186148
-0.187507
-0.207113
-0.252234
-0.321816
-0.410285
-0.505224
-0.589253
-0.646674
-0.667034
-0.65251
-0.60726
-0.545558
-0.474358
-0.400406
-0.329654
-0.267876
-0.220352
-0.192861
-0.190094
-0.21471
-0.263702
-0.329382
-0.406419
-0.491593
-0.574059
-0.638151
-0.667199
-0.643134
-0.573609
-0.477962
-0.376852
-0.279446
-0.187869
-0.109893
-0.0509191
-0.0144665
0.000713258
-0.0040268
-0.0247318
-0.056999
-0.0954121
-0.135587
-0.174153
-0.206942
-0.230992
-0.246239
-0.25319
-0.252651
-0.245256
-0.23257
-0.215967
-0.197891
-0.179779
-0.162352
-0.146615
-0.134662
-0.126658
-0.12266
-0.122448
-0.125732
-0.131091
-0.137282
-0.143272
-0.148346
-0.151669
-0.151573
-0.147599
-0.13996
-0.129505
-0.117586
-0.105341
-0.0934387
-0.0825649
-0.0731756
-0.0654197
-0.059342
-0.0548318
-0.0516429
-0.0494793
-0.0478647
-0.551989
-0.532461
-0.51157
-0.489176
-0.465169
-0.439479
-0.412098
-0.383186
-0.353144
-0.322671
-0.292914
-0.26455
-0.239196
-0.218399
-0.20404
-0.199112
-0.207371
-0.233179
-0.278267
-0.340071
-0.415154
-0.495305
-0.566865
-0.615988
-0.633315
-0.617775
-0.574639
-0.515892
-0.449221
-0.381324
-0.317788
-0.264574
-0.225499
-0.202596
-0.199446
-0.223408
-0.273
-0.338045
-0.414412
-0.49449
-0.566444
-0.619979
-0.638987
-0.617115
-0.550855
-0.46043
-0.366702
-0.278016
-0.195468
-0.125172
-0.0708283
-0.0335616
-0.0130318
-0.00891122
-0.0236902
-0.0522332
-0.0878677
-0.125208
-0.161863
-0.196078
-0.222452
-0.239725
-0.248847
-0.250708
-0.246012
-0.236143
-0.221648
-0.204402
-0.186918
-0.169762
-0.153417
-0.1405
-0.131694
-0.126817
-0.125943
-0.128012
-0.132054
-0.136879
-0.14127
-0.14513
-0.14737
-0.146637
-0.142658
-0.135617
-0.126088
-0.115502
-0.105024
-0.0946506
-0.0850786
-0.0768478
-0.0698676
-0.0639118
-0.0589614
-0.0549899
-0.0519143
-0.0493046
-0.566069
-0.544122
-0.520334
-0.494669
-0.467233
-0.438226
-0.407928
-0.376747
-0.345299
-0.31456
-0.28572
-0.259174
-0.236636
-0.219819
-0.209863
-0.20916
-0.220364
-0.244478
-0.28506
-0.340041
-0.401615
-0.464372
-0.521302
-0.560445
-0.574363
-0.562467
-0.529071
-0.481289
-0.426206
-0.369599
-0.316628
-0.272734
-0.240552
-0.222716
-0.225297
-0.251654
-0.296308
-0.352311
-0.415344
-0.478773
-0.5348
-0.573561
-0.584148
-0.561127
-0.505198
-0.43043
-0.350817
-0.274964
-0.206725
-0.146556
-0.0980319
-0.0633705
-0.0437235
-0.0379544
-0.0431057
-0.060914
-0.0870362
-0.115787
-0.145904
-0.17574
-0.200559
-0.218856
-0.231977
-0.238433
-0.238348
-0.233166
-0.222895
-0.20897
-0.193351
-0.177372
-0.1629
-0.150394
-0.140691
-0.134093
-0.131148
-0.131457
-0.133489
-0.136171
-0.138683
-0.140581
-0.140986
-0.139498
-0.135752
-0.129721
-0.121626
-0.112892
-0.104208
-0.0958637
-0.0881993
-0.0814035
-0.0753817
-0.0697453
-0.0648099
-0.0604676
-0.0563625
-0.0524446
-0.582619
-0.558257
-0.531323
-0.501969
-0.470534
-0.437554
-0.403662
-0.369602
-0.33657
-0.305233
-0.275587
-0.249762
-0.229562
-0.21587
-0.209382
-0.211633
-0.224409
-0.248484
-0.284835
-0.331268
-0.381371
-0.431098
-0.476042
-0.506908
-0.518597
-0.510607
-0.485669
-0.448626
-0.404901
-0.359572
-0.317949
-0.284304
-0.260698
-0.249616
-0.254798
-0.277306
-0.313336
-0.357359
-0.403657
-0.450052
-0.489226
-0.513052
-0.515411
-0.494255
-0.450561
-0.393762
-0.332678
-0.2728
-0.217833
-0.16813
-0.12695
-0.0957975
-0.0746159
-0.062992
-0.0615639
-0.0708647
-0.0879719
-0.108303
-0.132274
-0.15718
-0.178938
-0.197039
-0.212973
-0.223255
-0.226106
-0.224381
-0.217599
-0.207369
-0.194724
-0.181601
-0.169297
-0.158244
-0.14945
-0.143279
-0.139209
-0.13723
-0.136765
-0.137165
-0.137187
-0.136793
-0.136016
-0.133524
-0.129542
-0.124105
-0.117502
-0.110306
-0.103122
-0.096621
-0.0909383
-0.0862615
-0.0815598
-0.0760435
-0.0708281
-0.0659071
-0.0607101
-0.0553381
-0.602061
-0.575227
-0.545002
-0.511691
-0.475839
-0.438294
-0.400042
-0.362158
-0.32573
-0.291797
-0.261297
-0.236027
-0.216951
-0.204853
-0.200643
-0.205301
-0.219656
-0.244044
-0.277251
-0.31712
-0.359606
-0.401132
-0.438232
-0.464888
-0.475712
-0.470677
-0.452444
-0.424475
-0.390919
-0.355942
-0.324013
-0.298374
-0.280694
-0.273472
-0.279004
-0.296632
-0.322516
-0.352821
-0.385882
-0.417711
-0.442344
-0.454871
-0.453342
-0.436007
-0.402668
-0.360024
-0.313987
-0.268381
-0.225229
-0.18511
-0.149757
-0.121728
-0.101166
-0.087785
-0.0817928
-0.0830204
-0.0908168
-0.104134
-0.121249
-0.14067
-0.160858
-0.178826
-0.193855
-0.206501
-0.215457
-0.218697
-0.215764
-0.209295
-0.199988
-0.188742
-0.176707
-0.165464
-0.156539
-0.149579
-0.144407
-0.140977
-0.138876
-0.137404
-0.13571
-0.133555
-0.130998
-0.127733
-0.12341
-0.118406
-0.113222
-0.107672
-0.102501
-0.0979405
-0.0938738
-0.0902563
-0.0865213
-0.0822613
-0.0769878
-0.0714278
-0.0660027
-0.0600569
-0.624909
-0.595522
-0.561723
-0.523953
-0.483027
-0.440102
-0.3965
-0.353554
-0.312608
-0.275126
-0.242634
-0.216327
-0.197194
-0.186125
-0.18381
-0.190707
-0.206989
-0.232316
-0.264908
-0.302453
-0.341747
-0.378651
-0.410213
-0.434472
-0.446434
-0.444063
-0.430931
-0.409839
-0.383911
-0.356537
-0.331229
-0.3109
-0.297306
-0.291938
-0.295692
-0.307396
-0.324023
-0.34425
-0.366476
-0.386807
-0.40167
-0.407629
-0.402943
-0.387497
-0.362534
-0.331259
-0.296791
-0.261867
-0.228506
-0.197313
-0.168176
-0.143428
-0.124302
-0.109878
-0.100581
-0.0969622
-0.0990033
-0.106282
-0.118222
-0.133849
-0.151494
-0.169457
-0.18587
-0.200784
-0.212467
-0.219326
-0.220891
-0.216707
-0.209292
-0.199209
-0.187691
-0.176208
-0.165774
-0.156981
-0.150063
-0.144598
-0.140202
-0.136451
-0.133117
-0.129762
-0.126063
-0.122291
-0.117795
-0.113122
-0.108957
-0.105218
-0.101899
-0.0991875
-0.0970366
-0.0950491
-0.0925992
-0.089051
-0.0839948
-0.0783953
-0.0727639
-0.0663859
-0.652289
-0.620221
-0.582375
-0.539324
-0.49218
-0.442482
-0.391993
-0.342535
-0.295928
-0.253968
-0.218248
-0.190034
-0.17041
-0.160178
-0.159791
-0.169323
-0.188441
-0.216247
-0.250393
-0.28815
-0.326602
-0.362445
-0.393759
-0.417198
-0.429036
-0.42896
-0.419594
-0.403195
-0.382431
-0.360189
-0.339271
-0.322274
-0.310659
-0.30505
-0.305818
-0.312018
-0.321827
-0.334596
-0.348518
-0.360506
-0.368022
-0.369216
-0.363297
-0.350493
-0.331629
-0.308385
-0.282719
-0.256394
-0.230564
-0.205693
-0.182093
-0.160762
-0.14272
-0.127921
-0.116829
-0.110153
-0.108384
-0.111762
-0.120204
-0.13326
-0.149693
-0.167747
-0.185862
-0.202959
-0.217803
-0.228433
-0.232813
-0.23174
-0.226748
-0.216158
-0.203673
-0.190914
-0.17845
-0.166937
-0.156877
-0.148586
-0.141786
-0.135971
-0.130893
-0.126186
-0.121595
-0.117129
-0.112714
-0.108753
-0.105769
-0.1037
-0.102462
-0.101916
-0.101592
-0.100902
-0.0991819
-0.0970201
-0.0923703
-0.0865403
-0.0814163
-0.0744982
-0.685732
-0.650886
-0.608423
-0.559048
-0.504256
-0.446125
-0.387021
-0.329357
-0.275457
-0.227468
-0.187245
-0.156279
-0.135689
-0.126198
-0.128085
-0.141106
-0.164483
-0.196597
-0.234637
-0.275604
-0.316268
-0.353767
-0.386276
-0.410192
-0.422169
-0.423724
-0.416837
-0.403407
-0.385874
-0.366769
-0.348397
-0.332953
-0.321638
-0.314771
-0.31254
-0.314282
-0.318932
-0.325743
-0.333023
-0.338706
-0.341311
-0.339807
-0.333631
-0.322851
-0.308315
-0.291058
-0.272007
-0.252224
-0.232516
-0.213017
-0.193515
-0.174782
-0.158281
-0.144252
-0.132744
-0.124483
-0.12048
-0.121391
-0.127499
-0.138689
-0.15433
-0.173111
-0.192886
-0.212224
-0.229956
-0.24418
-0.25197
-0.25176
-0.250649
-0.241841
-0.22508
-0.210408
-0.195768
-0.181061
-0.167586
-0.155776
-0.145783
-0.137432
-0.130279
-0.124032
-0.118466
-0.113504
-0.109226
-0.106046
-0.104379
-0.104144
-0.104927
-0.106259
-0.10752
-0.107932
-0.107149
-0.105954
-0.10233
-0.0969853
-0.0914645
-0.084106
-0.727208
-0.689598
-0.641788
-0.584666
-0.52031
-0.451572
-0.381581
-0.313466
-0.250198
-0.194441
-0.148411
-0.113815
-0.0918638
-0.0832711
-0.0881486
-0.105922
-0.135359
-0.174154
-0.218926
-0.266066
-0.311819
-0.353353
-0.388325
-0.41291
-0.42538
-0.427852
-0.422084
-0.409988
-0.393922
-0.376176
-0.358803
-0.343596
-0.331514
-0.322852
-0.317652
-0.315483
-0.315788
-0.317753
-0.320071
-0.321483
-0.321034
-0.318002
-0.312012
-0.303159
-0.292205
-0.279431
-0.265149
-0.25057
-0.236618
-0.222563
-0.206826
-0.191497
-0.177118
-0.163763
-0.152546
-0.143502
-0.138276
-0.137745
-0.142386
-0.152293
-0.167078
-0.185796
-0.206992
-0.228569
-0.248856
-0.265785
-0.27678
-0.279304
-0.277922
-0.270631
-0.253868
-0.23576
-0.217992
-0.199883
-0.182647
-0.167126
-0.153589
-0.142142
-0.132623
-0.124643
-0.117949
-0.11248
-0.108427
-0.106156
-0.105844
-0.107236
-0.109746
-0.112649
-0.11512
-0.116583
-0.117103
-0.116454
-0.113639
-0.108901
-0.102839
-0.0953616
-0.778809
-0.738824
-0.68494
-0.618243
-0.541784
-0.459583
-0.375788
-0.294455
-0.219397
-0.153926
-0.100668
-0.061552
-0.0379251
-0.0305657
-0.0394666
-0.0637154
-0.101595
-0.150069
-0.204955
-0.261584
-0.315232
-0.362638
-0.401055
-0.426969
-0.439714
-0.441864
-0.435666
-0.423174
-0.406755
-0.388623
-0.37075
-0.35458
-0.340864
-0.329971
-0.321897
-0.316481
-0.313375
-0.311797
-0.310799
-0.309525
-0.307292
-0.303633
-0.298314
-0.291372
-0.283118
-0.273737
-0.26446
-0.256056
-0.247174
-0.236405
-0.224335
-0.211941
-0.199177
-0.186561
-0.17513
-0.166168
-0.160756
-0.159774
-0.163845
-0.173243
-0.18779
-0.206785
-0.228916
-0.252239
-0.274611
-0.293698
-0.306824
-0.312732
-0.3114
-0.303062
-0.287168
-0.266668
-0.244593
-0.222849
-0.201913
-0.182579
-0.165469
-0.150801
-0.138633
-0.128777
-0.12093
-0.114986
-0.111153
-0.109663
-0.110474
-0.113155
-0.116954
-0.120958
-0.124409
-0.127147
-0.128846
-0.128675
-0.126285
-0.121854
-0.115763
-0.108222
-0.844539
-0.802563
-0.741525
-0.662749
-0.570818
-0.471354
-0.369879
-0.271759
-0.181913
-0.104429
-0.0424237
0.00191935
0.0271755
0.0324442
0.0178666
-0.0151979
-0.064503
-0.126192
-0.195179
-0.265317
-0.330143
-0.385173
-0.427942
-0.455298
-0.467331
-0.46721
-0.458446
-0.443536
-0.424844
-0.404709
-0.384896
-0.366623
-0.350674
-0.337398
-0.326802
-0.318834
-0.313151
-0.309063
-0.305879
-0.303006
-0.299954
-0.296359
-0.29202
-0.286988
-0.281618
-0.276735
-0.273068
-0.26894
-0.263207
-0.255455
-0.246236
-0.235652
-0.223603
-0.211298
-0.200422
-0.191975
-0.186939
-0.186184
-0.190263
-0.199628
-0.21436
-0.23392
-0.257115
-0.282039
-0.306188
-0.326989
-0.341894
-0.349297
-0.34853
-0.33968
-0.323651
-0.301824
-0.275922
-0.249624
-0.2249
-0.201881
-0.181246
-0.163459
-0.148625
-0.13678
-0.127758
-0.121319
-0.117575
-0.116609
-0.118208
-0.121778
-0.126423
-0.131222
-0.135771
-0.139714
-0.142117
-0.142395
-0.140387
-0.13621
-0.130183
-0.122584
-0.929582
-0.887275
-0.81728
-0.722584
-0.610907
-0.489519
-0.365562
-0.246273
-0.138067
-0.0458464
0.0269192
0.0777093
0.104487
0.105987
0.0831506
0.0377427
-0.0274143
-0.107477
-0.195161
-0.283012
-0.362304
-0.425628
-0.473602
-0.50208
-0.511401
-0.506672
-0.492845
-0.472931
-0.449672
-0.425543
-0.402247
-0.380898
-0.362191
-0.34639
-0.33346
-0.32331
-0.315632
-0.309864
-0.305439
-0.301889
-0.298805
-0.295893
-0.293101
-0.290669
-0.289128
-0.28912
-0.28931
-0.288365
-0.285659
-0.280188
-0.272019
-0.261659
-0.249992
-0.238435
-0.228106
-0.22009
-0.215456
-0.215176
-0.219742
-0.229416
-0.244541
-0.264842
-0.289195
-0.315689
-0.341678
-0.363967
-0.380512
-0.388816
-0.388086
-0.378512
-0.361321
-0.338117
-0.310143
-0.279712
-0.250675
-0.224204
-0.200326
-0.179608
-0.162321
-0.148578
-0.138287
-0.131278
-0.127444
-0.126734
-0.128794
-0.132881
-0.13804
-0.143641
-0.149295
-0.154036
-0.156967
-0.157678
-0.155979
-0.152027
-0.146031
-0.138331
-1.03534
-0.998901
-0.91888
-0.803085
-0.665993
-0.516421
-0.363894
-0.218362
-0.088093
0.0209709
0.105321
0.163106
0.191504
0.187616
0.154351
0.0936366
0.00831495
-0.0959206
-0.210164
-0.322298
-0.42151
-0.49256
-0.544355
-0.575328
-0.575573
-0.56122
-0.539241
-0.511775
-0.481579
-0.451459
-0.423205
-0.397812
-0.375805
-0.357306
-0.342162
-0.330184
-0.321096
-0.3144
-0.309542
-0.306082
-0.303675
-0.30219
-0.301797
-0.302914
-0.30603
-0.310118
-0.31345
-0.315109
-0.31385
-0.309035
-0.301029
-0.29056
-0.278935
-0.267504
-0.257431
-0.24974
-0.245385
-0.245388
-0.250503
-0.260699
-0.276241
-0.297245
-0.322703
-0.350641
-0.378285
-0.4023
-0.419864
-0.428989
-0.428284
-0.418007
-0.399489
-0.374569
-0.344885
-0.311789
-0.278573
-0.248549
-0.221848
-0.19855
-0.179088
-0.163588
-0.152073
-0.144392
-0.140315
-0.139638
-0.141876
-0.146192
-0.151817
-0.158307
-0.164758
-0.170035
-0.173445
-0.174531
-0.173078
-0.169258
-0.163205
-0.155331
-1.17279
-1.14499
-1.05219
-0.912826
-0.744668
-0.559574
-0.371305
-0.193656
-0.0369262
0.0925765
0.190632
0.252499
0.281739
0.27605
0.236141
0.162032
0.05623
-0.0758729
-0.224113
-0.372402
-0.501017
-0.591919
-0.644317
-0.67261
-0.669832
-0.640931
-0.602979
-0.562616
-0.522015
-0.483415
-0.448405
-0.417783
-0.391829
-0.370399
-0.353136
-0.33969
-0.329722
-0.322712
-0.318099
-0.315431
-0.314492
-0.315379
-0.31848
-0.324199
-0.33182
-0.339587
-0.345636
-0.347836
-0.346812
-0.342365
-0.333444
-0.32207
-0.309835
-0.29802
-0.287764
-0.28002
-0.275621
-0.275541
-0.28085
-0.291506
-0.30739
-0.328831
-0.355133
-0.384267
-0.41334
-0.438895
-0.457425
-0.467406
-0.466763
-0.455899
-0.436214
-0.409668
-0.378363
-0.343792
-0.307552
-0.273907
-0.244694
-0.219295
-0.197995
-0.181032
-0.168412
-0.160019
-0.15562
-0.154824
-0.157031
-0.161504
-0.167741
-0.174943
-0.181896
-0.187657
-0.191493
-0.192881
-0.191602
-0.187773
-0.181546
-0.173371
-1.32806
-1.31821
-1.21893
-1.05738
-0.853115
-0.627876
-0.400389
-0.188647
-0.00623613
0.139591
0.246727
0.318194
0.355778
0.346941
0.293465
0.204518
0.0851239
-0.0627508
-0.233701
-0.412696
-0.573486
-0.694057
-0.764266
-0.789907
-0.777666
-0.73759
-0.683239
-0.624682
-0.569758
-0.520606
-0.477423
-0.440583
-0.410141
-0.385595
-0.366329
-0.351784
-0.341406
-0.334599
-0.330848
-0.329726
-0.331225
-0.335687
-0.343424
-0.353913
-0.365888
-0.377222
-0.383576
-0.38625
-0.385818
-0.379562
-0.368856
-0.355962
-0.34236
-0.329431
-0.318336
-0.309977
-0.305066
-0.304417
-0.30927
-0.320011
-0.336022
-0.357494
-0.384203
-0.414091
-0.444175
-0.470918
-0.49064
-0.501117
-0.500773
-0.489684
-0.469249
-0.441524
-0.408868
-0.37333
-0.335948
-0.299397
-0.267652
-0.240675
-0.217987
-0.19988
-0.186378